/*--------------------------------*- C++ -*----------------------------------*\
  =========                 |
  \\      /  F ield         | OpenFOAM: The Open Source CFD Toolbox
   \\    /   O peration     | Website:  https://openfoam.org
    \\  /    A nd           | Version:  12
     \\/     M anipulation  |
\*---------------------------------------------------------------------------*/
FoamFile
{
    format      ascii;
    class       volTensorField;
    location    "30";
    object      grad(U);
}
// * * * * * * * * * * * * * * * * * * * * * * * * * * * * * * * * * * * * * //

dimensions      [0 0 -1 0 0 0 0];

internalField   nonuniform List<tensor> 
9200
(
(-0.18835624 0.09294157 -7.7397385e-20 -0.30682762 0.18587764 -2.1878592e-19 -3.4543835e-19 2.5622682e-19 -4.9865092e-37)
(-0.077863026 -0.058088733 9.1945293e-20 -0.12617702 0.077652781 9.1455907e-20 1.2259644e-18 -5.3424963e-19 1.8327741e-37)
(-0.028240363 -0.10056889 -4.1378429e-19 0.14933447 0.032930536 -2.0790457e-19 -6.785617e-19 2.1264075e-19 -1.7618132e-37)
(-0.01593306 -0.097429339 4.468027e-19 0.49070084 0.018973782 -1.4107453e-19 -4.4295804e-20 2.252123e-19 -6.4715431e-37)
(-0.021820933 -0.074940072 6.0015152e-19 0.88382064 0.026352015 2.4433909e-19 4.0183328e-20 -2.0430332e-19 5.8707173e-37)
(-0.042060707 -0.050797738 -3.9837776e-19 1.3035931 0.047198744 1.7264443e-19 0 0 0)
(-0.073338728 -0.031810601 -1.8091871e-19 1.7103235 0.078228831 -3.5641899e-20 0 0 0)
(-0.11013612 -0.019860271 3.1359951e-19 2.049026 0.11520847 9.3343264e-20 1.3975838e-17 5.795585e-19 9.4410478e-37)
(-0.14568549 -0.014294154 -1.6926183e-19 2.2635379 0.15123278 9.6697075e-20 5.1513332e-18 3.379697e-19 -1.1800039e-37)
(-0.17305083 -0.013588253 -2.2825637e-19 2.3165826 0.17896945 -3.1262159e-19 -1.6332864e-17 -7.9080127e-19 -6.7800369e-37)
(-0.18633425 -0.016110477 2.4236864e-19 2.2031781 0.19226322 -1.9088129e-20 -1.2571475e-17 -8.3791871e-19 6.9008674e-37)
(-0.18244989 -0.020584752 -4.8317828e-19 1.9505303 0.18793879 3.405985e-19 2.5439117e-17 1.6902422e-18 -2.7396453e-37)
(-0.16201678 -0.026215548 -4.2311334e-19 1.6072654 0.16667601 8.482413e-21 2.8279351e-18 2.8118866e-19 -7.4971148e-37)
(-0.12893621 -0.032613333 4.891512e-19 1.228791 0.13252028 -8.3139819e-20 -2.3915621e-17 -1.6744684e-18 9.1635521e-37)
(-0.089005628 -0.039656566 1.8337259e-21 0.86446649 0.091453369 5.4499711e-20 0 0 0)
(-0.048280619 -0.04736011 6.3783876e-20 0.54952055 0.049703393 -2.9164336e-20 5.9795736e-17 4.2442762e-18 -3.0593141e-37)
(-0.011751786 -0.05569383 9.6080128e-20 0.30229427 0.012428274 9.1199067e-20 -8.8673487e-17 -6.008384e-18 -4.0247044e-37)
(0.017275346 -0.064809008 -9.0167269e-20 0.12566287 -0.017347097 9.1101704e-20 2.0256388e-17 1.5942797e-18 5.4408599e-37)
(0.037872821 -0.072739067 -5.8008599e-20 0.011487839 -0.036539964 3.924312e-20 1.9155541e-17 1.1585797e-18 1.8773774e-37)
(0.034684538 -0.075760819 6.1719108e-20 -0.067907013 -0.041835211 -1.6300477e-19 1.7473864e-17 8.6949042e-19 -2.8911685e-37)
(-0.20524976 0.14773098 -4.5070513e-19 -0.31436977 0.20968165 2.8073578e-19 4.5442249e-19 -3.2631372e-19 9.0669166e-37)
(-0.045830111 0.0069341143 1.1047711e-19 0.051154798 0.044344207 2.1271354e-19 -4.5751647e-19 3.1409073e-19 -7.3068396e-38)
(0.015983618 -0.04432238 -6.2583288e-19 0.4746261 -0.011479233 -3.5182189e-19 -4.4776787e-19 5.8012668e-19 4.1581406e-37)
(0.015262203 -0.058149529 -3.6267421e-19 0.94140402 -0.011977528 -5.8274438e-21 0 0 0)
(-0.020259931 -0.055545461 9.1518873e-19 1.4315461 0.022868891 7.8425449e-19 0 0 0)
(-0.076312727 -0.051277461 -6.928279e-20 1.893872 0.07799375 -2.1082584e-19 0 0 0)
(-0.13979196 -0.051114433 -4.8524155e-19 2.2551442 0.14091546 -4.4488973e-19 0 0 0)
(-0.19732219 -0.055230739 6.3396852e-19 2.4442723 0.19827265 2.7341288e-19 -1.6532779e-17 -9.0993054e-19 -1.239365e-36)
(-0.23706334 -0.061501588 -3.5446728e-19 2.4237719 0.23789159 -1.3684195e-19 2.0416926e-17 1.1826277e-18 7.5916435e-37)
(-0.25157588 -0.067371569 -4.6125077e-19 2.2058753 0.25205297 -4.1239702e-19 1.3913684e-17 8.5899643e-19 -1.729998e-36)
(-0.2395108 -0.071047907 7.4252234e-19 1.8451296 0.23942411 6.3997068e-19 -1.3773704e-17 -1.0094331e-18 1.2101309e-36)
(-0.20535766 -0.071980249 5.0461303e-19 1.4164834 0.2046806 2.8595794e-19 1.5423886e-17 1.3339316e-18 5.6964257e-37)
(-0.15741059 -0.070716945 -7.0178506e-19 0.9919011 0.15628389 -5.9925325e-19 -1.4921527e-17 -1.3187443e-18 -3.1598489e-37)
(-0.10496083 -0.068422105 -2.34007e-19 0.62414515 0.10361165 -4.5178483e-20 -1.3994943e-17 -1.060493e-18 4.7848675e-37)
(-0.055895837 -0.066349646 1.8172178e-19 0.34044962 0.054562421 1.4142608e-19 9.1566514e-17 7.5007754e-18 -9.9281404e-37)
(-0.015365311 -0.065456169 -1.3896332e-19 0.14463865 0.014248448 -4.8463313e-21 -6.0246901e-17 -4.7940598e-18 4.8064999e-37)
(0.014388655 -0.0662302 2.5921558e-19 0.024286726 -0.015161363 2.2996059e-19 -1.1164388e-17 -8.7171474e-19 7.4164211e-38)
(0.033523592 -0.068692997 2.2452779e-19 -0.040675143 -0.033919255 -2.5208422e-20 3.6968455e-20 -1.5309534e-19 7.3218341e-37)
(0.043553961 -0.071988535 -1.791716e-19 -0.070693811 -0.042574119 -3.8296534e-19 -1.8808218e-17 -1.3468217e-18 -8.9256768e-37)
(0.03692089 -0.071392762 -1.2651399e-19 -0.095001672 -0.040127674 -1.2422439e-19 -1.7444189e-17 -8.6801385e-19 2.8862587e-37)
(-0.17909568 0.15275094 -2.103083e-20 -0.24594318 0.18836269 5.5638935e-19 3.9688413e-19 -2.7716052e-19 -3.2749546e-37)
(-0.012786033 0.055952621 -2.2259585e-19 0.31562931 0.0071609449 6.6271055e-21 1.9843599e-19 -2.9944228e-19 -4.7219296e-37)
(0.035883422 0.016330344 -2.2290774e-20 0.8988566 -0.034507165 -1.0381947e-19 1.6897203e-18 2.6400169e-19 1.000785e-37)
(0.0045092441 -0.007144299 -6.4208899e-19 1.4843257 -0.0041601849 -7.0797311e-20 -1.5136933e-18 -5.1967615e-19 -4.57345e-37)
(-0.070249872 -0.025923394 -2.8106185e-20 2.0247538 0.07012971 1.666329e-19 0 0 0)
(-0.16049907 -0.046976897 7.1053876e-19 2.4303483 0.1607971 -1.2447938e-19 0 0 0)
(-0.24053526 -0.070096398 -3.4377138e-19 2.611784 0.24163453 -3.9133764e-19 0 0 0)
(-0.29065162 -0.091210597 1.8072003e-19 2.5298515 0.29213567 3.6855517e-19 -5.8520522e-18 -3.866254e-19 4.0623697e-37)
(-0.30161898 -0.10605441 3.4770877e-19 2.2165245 0.30283848 4.3399665e-19 0 0 0)
(-0.27574289 -0.11244577 -6.5628903e-19 1.7577533 0.27635115 -6.6034755e-19 1.488014e-17 1.1599891e-18 -3.4815618e-37)
(-0.22390829 -0.11083746 8.0805176e-20 1.2567838 0.22394357 -4.3872195e-19 -1.7376614e-17 -1.7523903e-18 1.7539666e-36)
(-0.16044229 -0.1036035 5.9075052e-19 0.80045105 0.16014798 1.1276312e-19 -6.5079922e-17 -6.1653363e-18 2.1429465e-37)
(-0.09826048 -0.093830185 5.3778733e-20 0.44064971 0.097900025 2.9248763e-19 6.0719703e-17 5.7694409e-18 4.5051033e-37)
(-0.045953381 -0.084257704 -2.0715271e-19 0.19234562 0.045713019 8.2398575e-20 1.4689092e-17 1.4278748e-18 4.7667043e-37)
(-0.0071712206 -0.076694727 2.9844602e-20 0.043005708 0.0071265784 -4.3622968e-20 -2.6333278e-17 -2.3257414e-18 -2.5940135e-37)
(0.01834647 -0.071907523 -1.1024053e-19 -0.033657324 -0.01821077 8.8497001e-20 -6.0534381e-17 -5.1846744e-18 -4.9682727e-37)
(0.033067863 -0.069851468 -1.9034242e-19 -0.06558977 -0.0328387 -2.9866826e-19 1.1308364e-17 1.1571343e-18 1.4548574e-36)
(0.040167595 -0.069921599 1.5754956e-19 -0.074956993 -0.039868897 -2.123041e-19 1.0168126e-16 7.5296488e-18 -2.7720193e-36)
(0.042247538 -0.0712689 2.9744636e-19 -0.0761058 -0.041743439 1.8401087e-19 -5.5720747e-17 -3.9664823e-18 1.9399823e-36)
(0.034544592 -0.069005973 -5.1307697e-20 -0.086435966 -0.035774047 3.6809899e-19 0 0 0)
(-0.11797875 0.12604043 6.2765636e-19 -0.078769408 0.13284627 2.8406661e-19 0 0 0)
(0.0079195806 0.078971728 2.1242508e-19 0.68611567 -0.020021499 -3.0012528e-19 9.8516776e-20 4.7994674e-19 4.4382375e-37)
(0.0083907144 0.054818797 -2.253979e-19 1.4288241 -0.011998042 -1.5651364e-19 3.6512325e-18 4.2482934e-19 6.5530669e-37)
(-0.075324949 0.020707809 -2.8977173e-20 2.0934544 0.073148107 1.5709591e-20 -9.318804e-18 -8.1639592e-19 -3.5463684e-37)
(-0.19175709 -0.02254893 -2.027402e-19 2.58495 0.19062749 -2.5386978e-19 -4.4783728e-18 -3.2240248e-19 6.6993526e-37)
(-0.2957017 -0.068882102 -1.1207758e-19 2.794093 0.29620062 -2.869719e-19 2.5017596e-17 2.0126013e-18 -1.4095119e-36)
(-0.35504589 -0.10928813 1.6880313e-19 2.6749373 0.3563883 2.2842081e-19 -1.3415697e-17 -1.1158385e-18 9.0340937e-37)
(-0.35793235 -0.13625653 -2.2635684e-19 2.2792225 0.35891438 6.4176142e-19 9.5816325e-18 1.0321811e-18 2.8229048e-37)
(-0.31227688 -0.14699529 1.9165316e-19 1.7286092 0.31235908 -2.6960499e-19 0 0 0)
(-0.23801689 -0.14366042 -3.0522315e-19 1.1586248 0.23737344 -9.8017167e-19 -9.6713779e-18 -1.1301772e-18 2.2157684e-37)
(-0.15708365 -0.13135357 -5.7436182e-19 0.6718873 0.15615809 3.3897283e-19 5.3998898e-17 5.7690949e-18 -4.1683517e-36)
(-0.085894065 -0.11560995 6.7224865e-19 0.31783744 0.085051627 9.3717633e-19 -6.8140261e-17 -7.6961336e-18 1.4867485e-36)
(-0.03245104 -0.10064768 4.765995e-19 0.097491015 0.031864537 -1.7469853e-19 -3.1437209e-17 -3.3176729e-18 -2.7090238e-37)
(0.0025733899 -0.088756295 -1.1431303e-19 -0.017778851 -0.002898174 -4.1581445e-19 2.8795152e-17 3.069431e-18 9.7702689e-37)
(0.022807853 -0.080551722 -1.9972616e-19 -0.065644781 -0.022956062 2.4575302e-19 -3.9435664e-17 -3.8302269e-18 -1.2050245e-37)
(0.033150257 -0.075602142 4.944468e-20 -0.078496619 -0.033208324 -5.3446765e-20 3.6139856e-17 3.4506075e-18 4.2006559e-37)
(0.037793357 -0.073066347 -1.9090177e-19 -0.077696092 -0.037839145 -2.310415e-19 0 0 0)
(0.039514846 -0.072013551 -1.5804449e-19 -0.074152385 -0.039474013 -5.4711119e-20 0 0 0)
(0.039516876 -0.071892811 1.4243368e-19 -0.072290265 -0.039663861 3.7671682e-19 9.3399936e-18 5.8793292e-19 -3.6692375e-37)
(0.033599675 -0.068585639 1.4869132e-19 -0.081196462 -0.033526172 2.3404957e-19 0 0 0)
(-0.039787864 0.089445138 3.0438887e-19 0.21475385 0.061291851 -6.1825377e-19 2.1875258e-19 1.2854455e-19 -5.746558e-37)
(-0.0018324935 0.079050866 3.803797e-19 1.1797589 -0.016966196 3.4505261e-19 5.0692308e-19 -1.8993773e-19 7.8620834e-37)
(-0.083480967 0.057533662 2.5002612e-19 2.0450222 0.076116393 2.6345236e-19 -3.0461218e-18 -3.0848036e-19 -5.8844396e-37)
(-0.22840887 0.0036102931 -3.8409839e-19 2.6894981 0.22639049 -3.8603067e-19 0 0 0)
(-0.36395339 -0.064466585 2.0547909e-19 2.9859429 0.3644515 -6.1171136e-20 -7.6461802e-18 -7.1954164e-19 3.6377594e-37)
(-0.4375261 -0.12573949 -3.4635913e-20 2.8727432 0.43925613 2.2912095e-19 -9.6172154e-18 -9.3483328e-19 -2.5568354e-37)
(-0.4315891 -0.16601309 -1.8050853e-19 2.4161965 0.43296868 3.7055549e-19 2.7850975e-17 2.9104312e-18 5.8090793e-37)
(-0.36120593 -0.18106413 1.1217733e-20 1.7776464 0.36140899 4.8356585e-20 -2.8734277e-17 -3.2155287e-18 -8.675191e-37)
(-0.25869667 -0.17534247 1.4467082e-19 1.1326445 0.25794937 -5.7693321e-19 2.1299867e-17 2.6591412e-18 -1.6257864e-37)
(-0.15605914 -0.15760182 -2.2383733e-19 0.60534141 0.15500958 6.2105856e-19 -9.7738675e-18 -1.2973944e-18 -7.309123e-38)
(-0.073748666 -0.13632422 -4.9497311e-19 0.24505492 0.072883015 4.7573662e-20 0 0 0)
(-0.018331094 -0.11708821 -2.667394e-19 0.039502668 0.017812742 -1.3002319e-18 2.5659779e-17 3.111687e-18 -1.1895594e-36)
(0.013567389 -0.102206 3.5694737e-19 -0.055089517 -0.013798227 1.1011113e-19 1.5699138e-17 1.7906624e-18 -4.5303074e-37)
(0.029431182 -0.091710494 3.3443134e-19 -0.086065266 -0.029503293 1.101492e-18 2.8502036e-17 3.2082197e-18 9.3563517e-37)
(0.036405682 -0.084608858 -1.0951014e-21 -0.088670276 -0.036419329 5.3852405e-20 -2.6125385e-17 -2.9407014e-18 -8.5761696e-37)
(0.039311643 -0.079772343 9.7217155e-20 -0.082806596 -0.039303459 -4.2618052e-19 -2.3685258e-17 -2.389608e-18 -6.8465771e-38)
(0.040582464 -0.076355171 1.038016e-21 -0.076875124 -0.040584218 -6.2214535e-20 2.1739364e-17 2.1932866e-18 6.2840875e-38)
(0.041089719 -0.073770149 -1.0489941e-19 -0.073030841 -0.04098925 -5.9144828e-21 -9.8470267e-18 -9.4671835e-19 1.0878149e-37)
(0.040798734 -0.071931945 9.6114268e-22 -0.071503338 -0.041107056 1.4168929e-19 9.10929e-18 7.2687141e-19 -1.6666916e-37)
(0.036339386 -0.067843543 3.7516159e-20 -0.078529321 -0.035448991 -3.1201482e-20 3.3003652e-17 2.4616737e-18 1.4786965e-37)
(0.030745765 0.057287671 2.8679869e-20 0.66216823 -0.0023140594 -3.3025296e-19 8.2082026e-19 2.5554997e-20 -4.3570078e-37)
(-0.063765334 0.059003441 -5.592501e-19 1.7900199 0.038444672 4.8822811e-19 8.1288978e-19 7.2539222e-21 5.8489987e-37)
(-0.24481962 0.018052698 5.1795868e-20 2.6845308 0.23504539 2.1410724e-19 0 0 0)
(-0.430514 -0.064054526 -3.8978598e-19 3.159683 0.43065028 -1.6625774e-20 1.1703024e-17 1.0790081e-18 4.9817415e-37)
(-0.53649114 -0.14764765 -1.1786652e-19 3.1236517 0.53904762 -3.7159719e-19 -4.4709938e-18 -5.2701004e-19 -2.415454e-37)
(-0.53055619 -0.20323862 6.6618771e-19 2.6440388 0.53254137 2.2854528e-19 -9.4266761e-18 -1.0424468e-18 5.6543902e-38)
(-0.43437523 -0.22233441 2.7170676e-19 1.9233385 0.43487599 7.7856031e-20 -1.4251666e-18 -2.4209819e-19 -2.8534931e-37)
(-0.29714263 -0.21229656 -4.4677709e-19 1.1894853 0.29643488 -4.2008395e-19 9.9498368e-18 1.1943246e-18 -1.8416036e-37)
(-0.16563994 -0.18701916 1.4443196e-19 0.60093131 0.1645035 5.0154617e-19 1.1099861e-17 1.700796e-18 -1.4272481e-37)
(-0.066751822 -0.15889527 1.0377267e-19 0.21446331 0.065809219 2.4541423e-19 -1.0265576e-17 -1.5567239e-18 -2.8552381e-37)
(-0.0057775531 -0.13497024 -8.2611051e-20 0.0072709932 0.0052284594 -1.1177717e-18 -1.8762494e-17 -2.6046112e-18 8.3850781e-37)
(0.025410368 -0.11718719 -1.8856258e-19 -0.079064031 -0.02565662 8.7542735e-20 -2.5549547e-17 -3.3176137e-18 1.35278e-36)
(0.038650172 -0.10459977 -2.1327668e-19 -0.10164287 -0.038749563 8.769685e-19 3.8978794e-17 5.2627686e-18 -1.3833002e-36)
(0.043406221 -0.09548052 -8.3659254e-20 -0.098944936 -0.043457525 7.2674808e-20 3.5253033e-17 4.4100562e-18 8.4682603e-37)
(0.045054459 -0.088445651 2.606619e-19 -0.090235813 -0.045090545 -6.8046223e-19 -3.8740477e-17 -4.5878444e-18 -2.3588522e-37)
(0.045768553 -0.082708561 3.4438837e-20 -0.082401972 -0.045786074 -1.4006042e-19 2.3569017e-17 2.7652216e-18 -6.6747906e-37)
(0.046052018 -0.077915817 -7.5628214e-20 -0.076766968 -0.046068717 3.0302074e-19 0 0 0)
(0.045861301 -0.073865716 -2.1927102e-20 -0.072989631 -0.045769893 2.8389691e-20 5.1533528e-20 7.1605388e-20 3.7774133e-38)
(0.045006772 -0.07063085 3.9021186e-20 -0.070847379 -0.045423908 1.7065842e-19 -2.6636937e-17 -2.3789232e-18 -4.5254078e-37)
(0.041218096 -0.06616025 4.6402844e-20 -0.075414224 -0.040014173 1.5493139e-19 3.2813446e-17 2.9873447e-18 2.7635985e-37)
(0.064015582 0.032816872 1.5297063e-19 1.277898 -0.029505223 2.6323296e-19 -3.3874945e-19 3.0996587e-20 4.8821334e-37)
(-0.19452745 0.013792233 3.8623057e-19 2.4785924 0.16316021 6.478993e-19 6.4597854e-19 2.3240038e-20 -1.4788603e-37)
(-0.46240953 -0.068327815 -3.4727663e-19 3.2564253 0.45168253 1.0744011e-19 -3.3142793e-18 -2.6027316e-19 -4.5809297e-37)
(-0.63725023 -0.17582709 -4.1702401e-19 3.4087704 0.64027017 -4.6215766e-19 -1.3937279e-17 -1.552684e-18 -7.8727104e-37)
(-0.65667039 -0.25359646 -9.4988814e-19 2.9732564 0.66016368 -9.6321382e-19 1.4144627e-17 1.6763618e-18 1.397818e-37)
(-0.54212973 -0.2795821 4.1913739e-19 2.186866 0.54308446 -2.5745157e-19 1.2849818e-17 1.9710878e-18 -9.3664421e-37)
(-0.36439654 -0.26329163 5.1931278e-19 1.3458532 0.36371 1.2404838e-18 -2.354392e-17 -3.5296389e-18 8.9512651e-37)
(-0.19344333 -0.2264993 -4.3932443e-19 0.66499528 0.19224896 5.4117278e-19 -1.2613541e-17 -2.1743955e-18 -8.1602911e-37)
(-0.068494448 -0.18789228 -6.8423381e-19 0.22381291 0.067488837 -6.9128776e-19 2.2328576e-17 3.8369416e-18 1.8673323e-36)
(0.0044551174 -0.1568687 6.076696e-19 -0.0052139725 -0.0050303862 -2.1720028e-19 3.080561e-17 4.7959578e-18 1.2177732e-37)
(0.038689336 -0.13482993 4.0122932e-19 -0.095357538 -0.038923735 3.85082e-20 -4.6715238e-17 -7.3274072e-18 4.8740837e-37)
(0.051328754 -0.11940807 -3.4096584e-19 -0.11574008 -0.051402995 4.3419117e-20 1.7046612e-17 2.6059599e-18 4.46936e-38)
(0.054797156 -0.10785506 -9.3875418e-20 -0.11033185 -0.054824273 1.9534349e-19 -2.3099876e-17 -3.2402669e-18 -1.7518608e-37)
(0.055390179 -0.098418438 5.7961086e-20 -0.099477995 -0.055404967 -3.9240636e-19 7.021819e-18 1.0579484e-18 -5.7093595e-38)
(0.055289326 -0.090326783 -1.9116683e-20 -0.089689657 -0.055292342 -2.8166297e-19 -1.2821759e-17 -1.616914e-18 3.8686232e-37)
(0.054865147 -0.083333569 -7.5962329e-20 -0.082001771 -0.054853101 7.0815346e-19 2.3173253e-17 2.8316473e-18 4.1765197e-37)
(0.054045538 -0.07734324 -1.1060526e-19 -0.076183988 -0.054031232 1.6442571e-19 -1.2765307e-19 -1.585801e-19 2.9058055e-37)
(0.05279315 -0.072238536 -7.7613112e-21 -0.071906746 -0.052691163 -2.9046512e-19 -2.9153399e-17 -3.2784006e-18 -5.61108e-37)
(0.051082759 -0.067995128 2.0497171e-19 -0.068921522 -0.051504307 5.1461495e-20 8.8966526e-18 8.869498e-19 -3.583943e-38)
(0.047470674 -0.063382914 3.6314076e-20 -0.071153934 -0.046238301 1.927807e-20 0 0 0)
(0.028277175 0.0097722245 -3.6435782e-19 2.0536938 0.010953202 -5.7971692e-19 3.3903258e-19 -3.1022494e-20 -4.886214e-37)
(-0.39711761 -0.068162847 1.9575899e-18 3.1812646 0.36206345 4.7656695e-19 -5.9984079e-18 -3.0195224e-19 2.6192656e-37)
(-0.70325538 -0.20192782 2.52882e-19 3.6736627 0.69451062 8.0764058e-19 6.1194171e-18 4.5620891e-19 5.6061915e-37)
(-0.79962802 -0.31560607 -3.4087696e-19 3.3995814 0.80596906 3.675573e-19 3.2180678e-18 4.6593397e-19 2.6397639e-37)
(-0.69169792 -0.35935267 -9.7176003e-19 2.5930055 0.69509084 -1.1972239e-18 -1.9184126e-17 -3.1416106e-18 -5.5083169e-37)
(-0.4729417 -0.33806279 -6.77305e-19 1.6306801 0.47242085 -5.2638268e-19 1.2376299e-17 2.0956559e-18 -8.6985796e-38)
(-0.24906509 -0.28459385 9.3769243e-19 0.81673816 0.24749447 1.4632155e-18 0 0 0)
(-0.08350144 -0.22903118 5.7809639e-19 0.28084403 0.082198136 3.1262842e-19 0 0 0)
(0.011518185 -0.18593541 2.2780124e-19 0.0027657538 -0.012309866 -1.2212618e-18 -1.1261152e-17 -1.9353638e-18 -4.0977761e-37)
(0.05413669 -0.156588 -2.3483249e-19 -0.10548008 -0.054521505 -9.7993007e-19 0 0 0)
(0.068409701 -0.13662164 -1.2276259e-19 -0.12948424 -0.068582429 3.5114795e-19 2.7787361e-17 4.6197753e-18 -1.3076745e-36)
(0.071227207 -0.12169024 8.7980122e-20 -0.12297497 -0.071326827 7.8995649e-19 -3.3625218e-17 -5.5379288e-18 5.6183851e-37)
(0.070676943 -0.10934327 1.4887968e-19 -0.11001484 -0.07075465 -2.9212999e-20 3.0511939e-17 4.8280138e-18 5.0725359e-37)
(0.069378684 -0.098651907 1.7771018e-19 -0.09798155 -0.069440185 -3.1091648e-19 -1.3916127e-17 -2.1559112e-18 -2.2975769e-37)
(0.067767857 -0.089366928 -2.6262883e-19 -0.088014681 -0.067811821 1.7788925e-19 0 0 0)
(0.065813467 -0.081390047 -1.4586696e-19 -0.079978117 -0.065844576 2.6767393e-19 0 0 0)
(0.063544671 -0.07458566 2.7340521e-19 -0.073749575 -0.06356417 -3.0117366e-19 0 0 0)
(0.061048519 -0.068787322 1.3050373e-19 -0.069063295 -0.061009291 -5.6117407e-19 -1.9079262e-17 -2.283859e-18 1.0774341e-36)
(0.058335098 -0.06384553 5.5781949e-20 -0.065361302 -0.058749515 2.094342e-19 2.1873551e-17 2.6264773e-18 -1.1697098e-36)
(0.054520414 -0.059237808 8.9627773e-20 -0.065471435 -0.05352084 4.8703248e-19 0 0 0)
(-0.10588647 -0.026352608 -7.1272508e-19 2.9528777 0.14786149 -1.6615495e-18 9.6868895e-19 4.5747046e-20 -5.6285289e-37)
(-0.65808138 -0.19811666 -4.8159288e-19 3.8240466 0.62406448 2.5407355e-19 3.4633103e-19 2.1698471e-20 -7.6868256e-38)
(-0.92484327 -0.37398418 1.4456862e-18 3.8837635 0.9218387 2.5386251e-18 0 0 0)
(-0.88160135 -0.46075555 1.2460261e-18 3.1613399 0.89135619 4.5485588e-19 -2.4102704e-18 -5.1294956e-19 -5.3513902e-37)
(-0.63682921 -0.44492905 -6.9056297e-20 2.088005 0.63973822 -8.7133481e-19 2.7224872e-18 4.0210187e-19 5.4914152e-37)
(-0.34685489 -0.37121723 -1.3413851e-18 1.0952783 0.34523695 -1.7914752e-18 7.2275892e-18 1.4899139e-18 -5.2240649e-37)
(-0.11986863 -0.28952536 -5.1501195e-20 0.40893985 0.11786099 -1.6006402e-19 -6.5745957e-18 -1.3553042e-18 4.7520845e-37)
(0.013131832 -0.22610486 1.3216347e-18 0.041344338 -0.014481311 4.0988621e-19 -3.0886346e-18 -5.8456845e-19 2.9894951e-38)
(0.072463286 -0.18419598 2.741196e-19 -0.10627686 -0.073258431 -1.8014147e-19 2.8367056e-18 5.5380398e-19 -1.0165654e-37)
(0.091396818 -0.15685078 -4.1009949e-19 -0.14212622 -0.091858059 9.2845948e-19 0 0 0)
(0.094043047 -0.13706527 -3.9964936e-19 -0.13652406 -0.094347903 2.4314603e-19 9.1344448e-18 1.6812876e-18 3.0281373e-37)
(0.091935386 -0.12100499 4.1946521e-21 -0.12139412 -0.09217325 -5.6513665e-19 -1.0416334e-17 -1.9269401e-18 -2.670706e-37)
(0.088816737 -0.10725865 3.5788693e-19 -0.10672771 -0.089015481 -3.4751769e-19 -7.510595e-18 -1.2722725e-18 3.1053765e-37)
(0.085408455 -0.095427638 3.111437e-20 -0.094237589 -0.085570086 3.1756384e-19 8.5798403e-18 1.4593002e-18 -3.2499789e-37)
(0.081749845 -0.085328319 -1.1321182e-19 -0.083827879 -0.081880933 4.2480263e-19 3.1182266e-18 4.4772677e-19 8.4773376e-38)
(0.077905123 -0.076759891 -7.4233926e-20 -0.075448149 -0.078017343 -3.0749214e-19 -5.6987492e-18 -8.7842655e-19 -1.5794061e-37)
(0.074009043 -0.069491243 -6.9047433e-21 -0.069054956 -0.07409403 -5.9510965e-19 0 0 0)
(0.070152341 -0.063308936 3.6553826e-20 -0.064187696 -0.070218144 1.7551798e-19 0 0 0)
(0.066275102 -0.057990154 -1.9078311e-19 -0.059956221 -0.066658567 4.9910949e-19 -1.2957979e-17 -1.5922361e-18 1.0425022e-37)
(0.061912872 -0.053512323 -1.1526283e-19 -0.058192291 -0.061335373 1.3015095e-20 7.9175658e-18 9.7808091e-19 6.9510612e-38)
(-0.36268588 -0.097280355 8.855894e-20 3.9149633 0.40197491 5.8850447e-19 0 0 0)
(-0.96043483 -0.38167671 -1.7806508e-18 4.343267 0.92415571 -1.0993888e-18 0 0 0)
(-1.1005664 -0.56777871 4.7826014e-19 3.8814886 1.0934341 -1.3960811e-18 0 0 0)
(-0.87936244 -0.58953895 1.8518046e-18 2.7682247 0.88126018 1.5191785e-18 2.4053585e-19 9.8986572e-20 -5.7516648e-38)
(-0.51583736 -0.49895021 -4.2174214e-21 1.5647735 0.51192597 1.629846e-18 -4.6852416e-20 -6.3097904e-20 2.161846e-37)
(-0.19655045 -0.37939382 1.0935265e-19 0.65583738 0.19204645 -5.0371048e-19 -7.9723789e-20 -2.199284e-20 6.3167933e-38)
(0.0022261336 -0.28239038 -1.418781e-18 0.13637014 -0.0043328897 -1.6434127e-18 1.6764156e-18 3.9182553e-19 9.1709196e-38)
(0.093864244 -0.21901712 -1.402519e-19 -0.086783255 -0.094224627 -1.3197546e-19 -3.0890027e-18 -6.6908435e-19 2.0910626e-37)
(0.12321113 -0.17969047 7.3257793e-20 -0.14972536 -0.12280525 1.3086886e-18 5.5604017e-18 1.1904254e-18 -4.9603685e-38)
(0.12653451 -0.15288597 -1.227127e-19 -0.14948284 -0.12586807 7.8571034e-20 -2.5232286e-18 -5.4873974e-19 -6.0727156e-38)
(0.12204465 -0.13204484 -2.0441879e-19 -0.13272737 -0.12134282 -4.6578514e-19 0 0 0)
(0.11599482 -0.11465196 1.7304085e-19 -0.11511913 -0.11532908 -4.3765985e-19 2.0668319e-18 3.9014558e-19 -9.8538497e-39)
(0.1097482 -0.099933729 3.5731442e-19 -0.099868594 -0.10914217 7.4028803e-20 0 0 0)
(0.10349337 -0.087541015 -1.9307784e-19 -0.087011995 -0.10293756 5.7350981e-19 -1.7034526e-18 -2.9447054e-19 4.0632208e-38)
(0.097290121 -0.077141832 -1.7727578e-19 -0.076373769 -0.096781594 1.8801368e-19 3.0998762e-18 5.1081069e-19 8.7563895e-38)
(0.091266133 -0.068421801 -1.3917268e-19 -0.068011155 -0.090798176 -1.0337958e-19 0 0 0)
(0.085552563 -0.06109087 2.4712926e-21 -0.061800651 -0.085095704 -3.2774311e-19 0 0 0)
(0.080165336 -0.054893888 -1.9160949e-19 -0.057013252 -0.079776082 -1.6795991e-20 0 0 0)
(0.074936673 -0.049602962 -1.924412e-19 -0.052555357 -0.074722486 4.6650534e-19 0 0 0)
(0.069690447 -0.045411288 -4.5617223e-20 -0.049208312 -0.069184188 1.6237486e-19 -1.9445299e-18 -2.4650498e-19 -1.1060744e-37)
(-0.084941711 -2.1447011 -7.7151926e-19 0.07917507 0.075281532 1.1373152e-18 0 0 0)
(-0.29219688 -0.71861037 -9.9284904e-19 0.081718974 0.29848899 2.2195661e-20 0 0 0)
(-0.39388176 -0.023135645 3.5225381e-19 0.044829935 0.39311624 2.1681883e-18 0 0 0)
(-0.42451269 0.26621065 1.778107e-18 -0.0038682106 0.41900206 -1.1898869e-18 2.8005413e-19 6.3299084e-19 -7.0696649e-38)
(-0.41496074 0.37264196 4.988385e-19 -0.052762264 0.41089411 -3.7986894e-20 -6.7467813e-19 -1.0046278e-18 1.7990086e-37)
(-0.38913917 0.4259397 6.743168e-19 -0.0998329 0.38533375 -9.8614782e-19 -4.7645854e-20 5.3774473e-20 7.9153331e-38)
(-0.35468 0.47883682 -2.300352e-18 -0.1442605 0.35001404 -3.4618109e-19 2.0488108e-19 1.5178359e-19 -1.8695135e-37)
(-0.31321289 0.54163136 -9.7306142e-19 -0.18415435 0.30868396 1.5079606e-18 4.9594495e-19 6.9694619e-20 2.3960657e-37)
(-0.26609659 0.60761749 1.4757951e-18 -0.21856072 0.26370248 -6.1085609e-19 1.2136199e-20 -2.8821834e-20 -1.3141318e-37)
(-0.21802329 0.66752377 -5.3670012e-19 -0.24667634 0.21460307 1.355611e-19 -4.8095409e-19 7.1606005e-20 -1.6041376e-38)
(-0.16879476 0.71477875 -9.411275e-19 -0.26597733 0.16408377 6.0740504e-19 0 0 0)
(-0.11728432 0.74363134 2.569774e-19 -0.27409101 0.11260593 5.1236677e-19 -4.9323186e-19 3.6632458e-19 -1.2576447e-37)
(-0.065091075 0.7491988 9.2242644e-19 -0.26969327 0.060417108 1.0249745e-18 0 0 0)
(-0.012431391 0.72802642 8.5462733e-19 -0.25151174 0.0076938269 2.7065024e-19 4.2891047e-19 -5.2098721e-19 -5.991724e-38)
(0.04045414 0.67792818 -4.5559743e-19 -0.21828653 -0.045489856 -4.1087985e-19 -7.7160267e-19 1.1480278e-18 8.2132461e-38)
(0.093448431 0.59813557 -9.3287243e-19 -0.16848725 -0.099163404 -8.7951953e-19 0 0 0)
(0.14770177 0.48940127 6.1138628e-19 -0.10041452 -0.15401432 2.2607587e-19 0 0 0)
(0.20585632 0.35422326 8.4271029e-20 -0.012907404 -0.21145213 1.3984334e-19 0 0 0)
(0.26642592 0.1973245 -5.2764156e-19 0.093452303 -0.27311564 -5.3234045e-19 0 0 0)
(0.32315837 0.021524489 2.3148127e-19 0.21697757 -0.34061126 -2.2987448e-19 -2.5579131e-19 1.1695091e-18 -5.7798031e-38)
(0.006825254 -1.8214612 6.2299537e-19 0.061902857 -0.018492567 9.7234432e-19 -6.8550677e-21 6.1381312e-19 -2.4637258e-37)
(-0.29189428 -0.57821213 6.3186656e-19 0.048701763 0.29659052 5.0689851e-20 -3.282574e-21 -1.1931429e-18 2.3422143e-37)
(-0.42264666 0.020686695 -7.6853859e-19 0.02899343 0.42245114 1.2485085e-18 0 0 0)
(-0.4640553 0.26294854 -1.4402509e-18 0.012037731 0.45808465 -7.7004647e-19 -9.5431512e-19 -1.7628576e-18 -8.0612417e-37)
(-0.45826323 0.34374947 6.7328539e-19 0.00058913311 0.453626 -3.9488872e-19 8.8682722e-19 1.3604421e-18 5.2696546e-37)
(-0.43419156 0.3794549 1.4175861e-19 -0.0064723857 0.43014605 -1.3557226e-18 9.2270119e-19 4.1729096e-19 1.443373e-37)
(-0.39849266 0.41886976 3.5105515e-19 -0.0092695273 0.39560387 -5.1827893e-19 1.814176e-19 -2.1253558e-19 -1.3738392e-37)
(-0.3544859 0.47083654 -4.8006257e-19 -0.006918486 0.35307996 1.7890504e-18 -2.5063892e-18 -1.5294122e-19 -3.3668594e-37)
(-0.30534152 0.5277878 -3.2574603e-19 0.00015838097 0.30304682 -2.0731189e-20 1.5001329e-18 -1.1226162e-19 2.4267475e-37)
(-0.25049862 0.58136714 8.0078066e-19 0.013333442 0.24720133 1.3800533e-19 0 0 0)
(-0.18965618 0.62487588 1.3039454e-19 0.035603789 0.18639396 -9.8750111e-20 0 0 0)
(-0.12404467 0.65105299 8.4225669e-19 0.067583109 0.12082921 1.2159775e-18 4.9240009e-19 -3.6570682e-19 1.2555238e-37)
(-0.054314168 0.65481038 1.2547745e-19 0.11059542 0.05092168 2.6371949e-19 -1.8954763e-18 2.0216189e-18 9.0891844e-37)
(0.019110831 0.63222412 -1.2776286e-18 0.16560158 -0.022956531 -8.6565179e-19 1.3079599e-18 -1.331578e-18 -7.727002e-37)
(0.095770153 0.58058673 -2.6340081e-19 0.23302894 -0.10040609 -5.782915e-19 2.2573452e-18 -3.5422436e-18 1.6548331e-37)
(0.174924 0.49873891 -3.5949813e-20 0.3127115 -0.18078542 -3.0117038e-19 -1.3639955e-18 2.1978772e-18 -2.269983e-37)
(0.25577863 0.38749439 -1.1425352e-19 0.40351585 -0.26289375 4.6417246e-19 0 0 0)
(0.33833886 0.24994457 3.493432e-19 0.50287299 -0.34547699 -5.0204743e-19 0 0 0)
(0.42389505 0.090978848 2.7761101e-19 0.60570035 -0.42603551 8.9597073e-21 -5.5370612e-19 2.3769857e-18 2.4747881e-37)
(0.47072608 -0.054956826 1.6176638e-19 0.70873514 -0.49829634 3.5485158e-20 7.0078984e-19 -4.0303057e-18 -5.9248296e-38)
(0.078636481 -1.4771249 3.1935203e-19 0.053426376 -0.089487927 -2.8480726e-19 1.2378174e-19 -6.673853e-19 3.8013945e-37)
(-0.26472351 -0.44771349 -3.9632854e-19 0.014652491 0.26901007 4.3973933e-19 -1.2223799e-19 5.0349458e-19 -4.1909995e-37)
(-0.40900299 0.055613109 -4.6485103e-20 0.004704126 0.40989593 -1.1857908e-18 -7.5867173e-20 1.2489561e-19 -1.1572363e-37)
(-0.45540813 0.25879942 -5.7270592e-19 0.013639234 0.44974819 3.0023133e-19 7.6281799e-19 1.1537319e-18 6.5933689e-37)
(-0.45132388 0.31915627 -7.0532082e-19 0.035988143 0.44654183 -2.1311275e-20 -1.9162091e-18 -1.4504887e-18 -1.8106782e-36)
(-0.42802666 0.33718756 3.3641193e-19 0.066988529 0.42382876 2.0096441e-19 1.2969213e-18 7.533899e-19 1.3080618e-36)
(-0.39367455 0.35952431 1.9386403e-18 0.10469454 0.38959097 7.3684424e-19 0 0 0)
(-0.35035071 0.39562337 1.8805689e-20 0.14776827 0.34619748 -4.1612768e-19 0 0 0)
(-0.29921037 0.44007705 -9.0913046e-19 0.19665077 0.29422712 -1.0014452e-19 1.722072e-18 -7.2121089e-19 4.8877969e-37)
(-0.24042275 0.48424137 -6.8238681e-19 0.25235269 0.23498327 -2.589248e-19 0 0 0)
(-0.17389981 0.51978176 7.9827683e-19 0.31478438 0.16808207 -2.6362987e-19 2.1621786e-18 -1.6346293e-18 -9.2068418e-37)
(-0.10025596 0.54020751 7.7955386e-19 0.38402672 0.094043883 5.8798957e-19 -6.9247642e-18 6.0855849e-18 1.3892637e-36)
(-0.020327613 0.540353 -1.4967832e-18 0.4598969 0.013717541 -1.5797155e-18 6.2634358e-18 -6.9762754e-18 -1.06686e-37)
(0.064750395 0.51626554 -4.0851958e-19 0.54162012 -0.071689036 -2.4602264e-19 -2.8232465e-18 3.5183259e-18 -1.0241888e-36)
(0.15347308 0.4655479 1.1409085e-20 0.62781576 -0.1605823 3.4081833e-19 0 0 0)
(0.24370802 0.38790876 6.2716725e-19 0.71623353 -0.25094703 1.9796365e-19 0 0 0)
(0.33302735 0.28397424 1.0523745e-19 0.80318054 -0.33967411 4.2125262e-19 0 0 0)
(0.41745052 0.15728089 -8.1172869e-19 0.88362108 -0.42300524 2.5107087e-19 -2.5535247e-19 7.8676195e-18 -1.8700699e-36)
(0.50212564 0.014876539 4.0807913e-19 0.9514927 -0.49571423 -2.2430686e-19 2.6423598e-20 -5.2258723e-18 1.5356621e-36)
(0.51023389 -0.093107189 2.7920408e-19 0.99164993 -0.54257355 -3.0368707e-19 0 0 0)