/*--------------------------------*- C++ -*----------------------------------*\
  =========                 |
  \\      /  F ield         | OpenFOAM: The Open Source CFD Toolbox
   \\    /   O peration     | Website:  https://openfoam.org
    \\  /    A nd           | Version:  12
     \\/     M anipulation  |
\*---------------------------------------------------------------------------*/
FoamFile
{
    format      ascii;
    class       volVectorField;
    location    "30";
    object      lapU;
}
// * * * * * * * * * * * * * * * * * * * * * * * * * * * * * * * * * * * * * //

dimensions      [0 -1 -1 0 0 0 0];

internalField   nonuniform List<vector> 
9200
(
(2.7380269 -4.3240237 3.5139243e-17)
(4.0552955 -2.1320832 -1.5145033e-17)
(4.9413991 -1.1134405 4.7033142e-18)
(6.0316678 -0.28275242 1.7327895e-17)
(6.886462 0.22315193 -4.3936121e-18)
(7.2368285 0.58485112 -1.0155549e-17)
(6.7701506 0.85855372 3.0678872e-18)
(5.3257958 1.006791 -2.317389e-19)
(3.0517843 1.0167502 -7.5968477e-18)
(0.41337428 0.88719414 -8.2036851e-18)
(-2.0252726 0.64925985 1.3028316e-17)
(-3.8227395 0.36158298 -1.6039904e-17)
(-4.7710307 0.087830905 1.508351e-17)
(-4.8945718 -0.12408874 4.6009147e-19)
(-4.3816562 -0.25209316 -3.1547735e-18)
(-3.4955422 -0.29909921 2.6034726e-18)
(-2.493729 -0.28261787 -1.5046074e-18)
(-1.5780197 -0.23516557 -6.2517509e-19)
(-0.85097476 -0.12508369 5.5490164e-19)
(-0.41511975 -0.11424088 -2.5573596e-18)
(5.8482592 -4.9284438 1.4619879e-17)
(6.5372702 -2.4793129 1.3355681e-18)
(7.0604207 -1.2995032 -2.7453312e-17)
(7.7700387 -0.34605655 4.7086489e-17)
(7.9956818 0.33830287 3.4952448e-18)
(7.2308424 0.82229777 -4.6640076e-17)
(5.2126521 1.0803173 3.0916486e-17)
(2.2255112 1.0830992 3.0152938e-18)
(-0.99798342 0.85982305 -2.3641058e-17)
(-3.6751127 0.50088519 2.610551e-17)
(-5.3052579 0.11985833 1.3969085e-17)
(-5.7789721 -0.18942744 -3.1640864e-17)
(-5.3039465 -0.37743483 -1.2074032e-17)
(-4.2517049 -0.44070984 2.436959e-17)
(-3.0075087 -0.40806081 -1.2137502e-17)
(-1.867132 -0.32128294 7.3119145e-18)
(-0.99435461 -0.21914207 2.0385299e-18)
(-0.42698388 -0.129708 -8.664982e-18)
(-0.12125148 -0.048316797 -4.358494e-18)
(0.044477958 -0.034198334 8.898882e-18)
(8.738166 -4.6648621 -3.5705363e-17)
(9.1968177 -1.9698475 1.0207593e-17)
(9.4268711 -0.73058903 -1.1029037e-17)
(9.5047087 0.32535626 -1.0998077e-17)
(8.4424532 1.0541873 2.2073627e-17)
(5.7764671 1.3801556 -1.0107308e-17)
(1.9247863 1.2783286 -1.7288115e-17)
(-2.0289605 0.85536232 3.7964232e-17)
(-5.0172835 0.30369963 -2.8790297e-17)
(-6.4847434 -0.19000452 -1.5864398e-17)
(-6.4732719 -0.51021054 1.7722429e-17)
(-5.428424 -0.62957592 4.4790833e-18)
(-3.9263197 -0.58811315 5.2068228e-18)
(-2.4542997 -0.45610259 -1.1021323e-17)
(-1.3014309 -0.30080701 7.7474704e-18)
(-0.55340687 -0.1671014 -7.3437774e-18)
(-0.15605582 -0.074693704 -1.3766873e-19)
(0.0063007036 -0.021513199 7.4268176e-18)
(0.03726578 0.0052234143 2.7363338e-18)
(0.047221711 0.0020065998 -3.5893087e-18)
(11.582675 -3.929541 -2.3881702e-17)
(12.023392 -0.84791189 -1.7969747e-17)
(11.7161 0.55614101 8.8786483e-18)
(10.34393 1.5485242 3.7688833e-18)
(7.0189308 1.9433836 -1.9982033e-17)
(2.1583992 1.6712852 2.2997653e-17)
(-2.7352698 0.94993339 8.0384777e-18)
(-6.2005807 0.13035421 1.1004138e-18)
(-7.5913426 -0.50081471 -1.3723917e-17)
(-7.1349861 -0.81621724 -2.2939926e-18)
(-5.5639464 -0.83862373 3.8899398e-17)
(-3.6789477 -0.67606969 -5.1383478e-18)
(-2.0527003 -0.44988665 -3.053684e-17)
(-0.93443858 -0.24722214 9.4140969e-18)
(-0.31215575 -0.10701797 3.8884572e-18)
(-0.042495767 -0.029986766 -4.2380002e-18)
(0.033428522 0.00098200188 -6.7166019e-19)
(0.032097526 0.0095552246 3.8731439e-18)
(0.0050714101 0.0033968756 5.5520704e-18)
(0.0045151181 -0.0010796329 -7.2245573e-18)
(14.597269 -2.7871792 7.518599e-18)
(14.791225 0.79198513 3.914293e-17)
(13.063195 2.2247934 -3.650087e-17)
(9.140342 2.7330799 4.8225742e-18)
(3.1726715 2.2843767 1.4269958e-17)
(-2.9545301 1.1805614 -1.4999603e-17)
(-7.207967 -0.0076740901 8.7182049e-18)
(-8.7244691 -0.8350216 -2.0185607e-17)
(-7.9120685 -1.1537939 -1.4013574e-19)
(-5.8443442 -1.0628366 2.5288837e-17)
(-3.5896904 -0.7660241 -4.7397099e-17)
(-1.81436 -0.44658076 8.1851109e-18)
(-0.71736431 -0.20636369 3.7398266e-17)
(-0.18482996 -0.067815195 -2.7867123e-18)
(0.0039760266 -0.0077775706 -1.9646966e-17)
(0.036767875 0.0084913932 5.2587984e-18)
(0.022053023 0.0067605216 -2.9631847e-18)
(0.0050445362 0.0044562494 1.1209604e-18)
(-0.012303392 -0.0067002457 5.41596e-20)
(-0.0042834631 -0.0037712018 -1.5889167e-18)
(17.565198 -1.0474607 3.4369059e-17)
(16.864302 2.8316132 -7.6462791e-18)
(12.511413 3.8759428 2.5330809e-17)
(5.3912411 3.2725092 -1.9138259e-17)
(-2.3657925 1.6923346 1.2594816e-17)
(-7.9369298 -0.016824907 4.2433908e-18)
(-9.9718912 -1.1658192 -2.3279923e-17)
(-8.9761411 -1.5427363 9.6620005e-18)
(-6.4269978 -1.3380653 3.1733368e-17)
(-3.7519389 -0.88921549 -4.2161788e-17)
(-1.764574 -0.46462405 6.7534989e-18)
(-0.6296342 -0.18298109 2.5434397e-17)
(-0.13450596 -0.04377252 -1.1349055e-17)
(0.014725533 0.0040578761 -9.6008174e-18)
(0.030065897 0.010666589 -3.5337758e-18)
(0.014803176 0.0060587842 1.3733673e-17)
(0.0013101508 0.0012592813 -4.2037466e-19)
(-0.0060717193 0.0012446489 -3.0124064e-19)
(-0.014805759 -0.0097765935 3.2972377e-18)
(-0.0050264221 -0.0024865186 -3.3035815e-18)
(19.931985 1.3952445 3.8675937e-17)
(17.389564 5.0877375 -5.1831792e-17)
(9.4122726 4.9949951 1.9553319e-19)
(-0.39448663 2.7837265 -2.3859951e-17)
(-8.0823541 0.2678845 1.638495e-17)
(-11.322887 -1.445681 2.5028102e-17)
(-10.477424 -2.0155306 2.6676224e-17)
(-7.4752253 -1.7262035 -4.2085051e-17)
(-4.2632397 -1.0982917 5.3359114e-18)
(-1.9285474 -0.53399982 1.5044964e-17)
(-0.65391863 -0.18806839 -1.3508654e-17)
(-0.13276732 -0.035366242 -1.5770185e-18)
(0.011059876 0.0081763291 3.6694137e-18)
(0.023747787 0.010318547 -1.1890106e-17)
(0.011627531 0.0046785399 1.6802439e-17)
(0.001938845 0.0011033638 4.1277934e-18)
(-0.0045498967 -0.00052027772 -1.5426277e-17)
(-0.0088898624 0.00029189378 3.9805596e-18)
(-0.012872352 -0.010300797 -1.6169199e-18)
(-0.0039488225 -0.0011502585 -1.3956052e-18)
(20.952073 4.414535 4.1059001e-17)
(15.532518 7.1263801 -8.3108465e-19)
(3.819415 5.0740544 -1.1970853e-17)
(-6.9814758 1.2452816 1.1927238e-18)
(-12.557544 -1.5469383 -4.9594757e-17)
(-12.518241 -2.5944879 6.5691587e-17)
(-9.1902688 -2.3054826 -1.6692517e-17)
(-5.2768938 -1.465095 -3.6816938e-17)
(-2.376679 -0.69478199 -2.2534794e-17)
(-0.80497161 -0.23459209 1.6700615e-17)
(-0.17460034 -0.042459601 3.0349751e-17)
(-0.0018050862 0.0078187841 -5.302696e-18)
(0.018404382 0.0095846133 -1.4410813e-17)
(0.010513991 0.0039860755 3.5918254e-18)
(0.0039691091 0.0010993894 2.1577699e-18)
(-0.0014217381 0.00011037553 -1.6980819e-18)
(-0.0070872493 -0.00058458411 -8.2617019e-18)
(-0.010352287 -0.00087284018 1.3457944e-18)
(-0.0093185481 -0.0092118303 1.335169e-17)
(-0.0026789892 -0.00017456286 -4.7238195e-18)
(19.900304 7.6347227 -5.3624585e-17)
(10.908652 8.3454836 1.665528e-16)
(-3.430052 3.8269715 -4.839152e-17)
(-12.976319 -1.0283392 -6.2682435e-17)
(-15.019957 -3.2422969 -1.4364858e-17)
(-11.806838 -3.1848975 -1.9915369e-17)
(-7.0480529 -2.1062405 8.6090059e-17)
(-3.2648191 -1.020278 -3.9397042e-17)
(-1.1486052 -0.35299543 3.6932617e-17)
(-0.28029907 -0.072503752 2.4106306e-18)
(-0.029704449 0.002725173 -2.5864065e-17)
(0.011015005 0.0089016308 -2.9460245e-18)
(0.0087746475 0.0039444192 7.5996777e-18)
(0.0051242605 0.0013618854 9.2363479e-18)
(0.0017538861 0.00073424677 -4.6915148e-18)
(-0.0039422448 4.1056057e-05 -8.8303719e-18)
(-0.009875775 -0.00087038056 7.1529165e-18)
(-0.010997701 -0.0023210502 1.1249235e-17)
(-0.0053555701 -0.0064314017 -5.3618348e-18)
(-0.0023635666 0.00012157574 -2.0145058e-18)
(16.262864 10.479755 -1.2130657e-17)
(3.8014532 8.0936508 -8.6102893e-17)
(-11.057799 1.2825967 7.3275002e-17)
(-17.337014 -3.540558 6.3281081e-17)
(-15.430061 -4.4385596 -2.8016663e-17)
(-9.9385977 -3.2052064 -3.9432299e-17)
(-4.8875069 -1.6480085 -1.693178e-17)
(-1.839565 -0.61158652 6.8079123e-17)
(-0.5117444 -0.14934911 -2.3001066e-17)
(-0.093930273 -0.012824925 -2.0891293e-17)
(-0.0068109071 0.0071284246 1.1020012e-17)
(0.0018539033 0.0039843973 -1.948377e-18)
(0.0015831132 0.0015335858 9.7253274e-18)
(0.0014599449 0.0010197021 -2.6072497e-18)
(-0.0016335038 0.00073232607 -3.4804516e-18)
(-0.0081629144 -0.00030979259 1.1476974e-18)
(-0.013627393 -0.0015232821 -7.0031217e-18)
(-0.011809363 -0.0036607306 7.3217102e-18)
(-0.0029701978 -0.0026169105 1.2556609e-18)
(-0.0036079519 -0.00059830409 -5.7712312e-18)
(-4.2433868 26.215636 9.3956762e-17)
(-2.346841 13.726204 -6.8495742e-17)
(-0.90647794 6.3219658 1.5617597e-16)
(0.24742238 2.6511659 -7.5932958e-17)
(0.86449273 1.3801955 1.93355e-17)
(1.3086353 1.1864164 -3.1398062e-17)
(1.6493847 1.2580405 -6.6966828e-17)
(1.9976384 1.2854016 8.8498014e-17)
(2.2364206 1.1515875 -1.6558876e-17)
(2.371826 0.93249527 -2.7403044e-17)
(2.5577228 0.64903663 2.3166999e-17)
(2.6853382 0.307797 1.6924543e-17)
(2.7910182 -0.067460046 1.7643373e-17)
(2.8825637 -0.46075968 -1.1089776e-17)
(2.9601644 -0.85898404 -2.2275465e-17)
(3.0240227 -1.2493661 1.7494042e-17)
(3.0784419 -1.6138137 1.6940777e-17)
(3.1071321 -1.921708 -3.2736333e-17)
(3.0226487 -2.1362736 2.3289518e-17)
(2.9088825 -2.3564183 1.0660766e-18)
(-6.2670137 23.059215 -9.2235968e-17)
(-3.0163678 11.571378 4.8723889e-17)
(-1.2605495 4.9876904 -1.5394594e-16)
(0.034051246 1.7482044 8.212853e-17)
(0.70167489 0.65252353 1.578754e-18)
(1.1932314 0.55598415 -1.2318431e-17)
(1.636112 0.70115995 3.5446619e-17)
(1.9602413 0.78507229 -4.2105105e-17)
(2.2418714 0.70868508 3.7343451e-17)
(2.5376702 0.58630688 -9.4345159e-19)
(2.7657493 0.35784328 -3.0531554e-17)
(2.9458444 0.068868337 2.8517595e-17)
(3.0807408 -0.258757 -6.4126729e-17)
(3.1685018 -0.60537034 6.1973137e-18)
(3.203456 -0.94927843 9.7700286e-18)
(3.1757178 -1.2639532 -5.7014622e-18)
(3.0812116 -1.5188132 5.0721682e-18)
(2.9285471 -1.6934914 5.2082448e-18)
(2.7125916 -1.7697691 -7.8648764e-18)
(2.1772848 -1.579436 1.8062787e-19)
(-7.2430741 19.222921 -1.9008883e-17)
(-3.3164543 9.4504115 2.3166325e-17)
(-1.4732444 3.8491023 9.3313563e-18)
(-0.19088662 0.99812746 -5.1057169e-18)
(0.44585254 -0.021544725 3.0349874e-18)
(0.89989168 -0.10289829 5.6462363e-17)
(1.2942928 0.09191801 1.022235e-17)
(1.6494974 0.23159119 -8.205491e-17)
(1.9609022 0.28505755 2.7241049e-17)
(2.2335994 0.21425055 -3.4328882e-17)
(2.4541056 0.064719325 7.2158645e-17)
(2.6158997 -0.13819012 -5.9748151e-17)
(2.7106586 -0.3737792 2.3578658e-18)
(2.7317139 -0.61941714 3.698555e-17)
(2.6760268 -0.85119613 -8.2779061e-18)
(2.5383311 -1.0469887 3.0696676e-17)
(2.3194255 -1.2065698 -3.2826856e-17)
(1.9965684 -1.2724345 2.0533513e-17)
(1.7423023 -1.2371474 5.1794228e-18)
(0.96043257 -0.91299857 -6.7731399e-18)
(-7.4253962 15.499409 -7.1679011e-18)
(-3.3767956 7.6436792 -5.4534342e-17)
(-1.575802 3.0052506 4.4741323e-17)
(-0.38670574 0.47231037 -3.0163938e-18)
(0.15355233 -0.59020553 1.1562354e-17)
(0.50210159 -0.75313895 -2.0449154e-17)
(0.81242015 -0.56159355 -2.3924132e-17)
(1.0976264 -0.35783341 1.5428687e-17)
(1.3501021 -0.24695947 2.3980131e-17)
(1.5558247 -0.23333544 4.0895333e-18)
(1.7057433 -0.28974757 2.4990888e-17)
(1.7917039 -0.38900554 -4.7044893e-17)
(1.808831 -0.51436699 4.7921121e-17)
(1.7561188 -0.65418307 -5.4189483e-18)
(1.6251715 -0.79566488 -2.1260978e-17)
(1.3944796 -0.89000562 1.0144343e-17)
(1.0834747 -0.94030674 -9.2545932e-18)
(0.67137988 -0.91139897 -2.2698652e-17)
(0.4269505 -0.77023358 1.2346871e-17)
(-0.26427526 -0.55049948 1.5136715e-17)
(-7.1849504 12.230244 1.9558631e-17)
(-3.301382 6.2055225 -7.5355656e-18)
(-1.5688115 2.4665123 -6.4720494e-17)
(-0.4764997 0.251697 4.524104e-17)
(-0.037537013 -0.8682565 -2.8465266e-17)
(0.18296545 -1.1936377 -1.3126665e-17)
(0.34428427 -1.1220809 1.6169438e-17)
(0.49612717 -0.93430909 6.9386746e-17)
(0.63218188 -0.77667621 -4.5455962e-17)
(0.73405565 -0.6893816 -1.3433841e-17)
(0.79247076 -0.66494572 -9.0078248e-18)
(0.80241354 -0.68643453 -1.2907546e-17)
(0.7401058 -0.72544019 4.1525702e-19)
(0.61535536 -0.76597444 -8.3696921e-18)
(0.42314152 -0.78260598 6.7037192e-18)
(0.17131099 -0.7518071 -8.8373627e-18)
(-0.10207582 -0.6669203 1.6999211e-17)
(-0.34509114 -0.54485036 -1.2374525e-17)
(-0.24793305 -0.42428244 1.6628224e-17)
(-0.1847154 -0.32131657 -1.4118177e-17)
(-6.7861814 9.3291352 -3.8752214e-17)
(-3.1193968 4.9941913 4.9046315e-17)
(-1.4184292 2.1258259 -6.3951227e-18)
(-0.35342932 0.32519541 -3.3827637e-19)
(0.049710027 -0.74064097 -4.3456315e-17)
(0.17386414 -1.2155797 2.6576145e-18)
(0.20639312 -1.3044889 3.1376654e-17)
(0.22144439 -1.2115901 -2.5838283e-17)
(0.24299534 -1.0726075 -3.725873e-17)
(0.26081124 -0.95215291 2.7264771e-18)
(0.26262417 -0.85302131 1.016767e-17)
(0.24604372 -0.76091207 9.9840725e-18)
(0.21494552 -0.66515803 1.9068225e-17)
(0.21669132 -0.56942369 -5.3431505e-18)
(0.31291614 -0.47637804 6.8611325e-18)
(0.50387946 -0.41021471 -7.0132537e-18)
(0.94350592 -0.38111049 -5.3015174e-18)
(1.3532969 -0.41583063 2.1987486e-18)
(2.0091048 -0.4185347 1.3629999e-17)
(1.2646932 -0.08674731 1.147711e-18)
(-6.2074624 6.4642925 2.7768111e-17)
(-2.7113915 3.7675033 -9.3681415e-18)
(-1.0005153 1.8054211 4.2403697e-17)
(0.13513449 0.56825773 -1.2328118e-17)
(0.61765226 -0.25625126 -1.4883748e-17)
(0.79755291 -0.6987346 6.7022343e-17)
(0.8652009 -0.8496335 -1.3822424e-17)
(0.9211749 -0.81922487 -1.9216573e-17)
(1.0132082 -0.69684831 -1.6245952e-17)
(1.1706926 -0.52943191 3.8642643e-17)
(1.4392428 -0.35313793 3.2157355e-17)
(1.8188387 -0.20166468 -2.8638529e-17)
(2.3631464 -0.089802474 -2.2058066e-17)
(2.9719544 -0.025932733 1.3327714e-17)
(3.412197 -0.014514088 -4.4155892e-18)
(3.5641689 -0.029920706 2.569651e-18)
(3.1766572 -0.0239695 3.705821e-18)
(2.3058522 0.019914811 -7.7237982e-18)
(1.4866848 0.30537379 -5.5957759e-18)
(-0.26614123 0.39284801 1.1784386e-17)
(-5.1366442 3.3772845 5.6577384e-18)
(-1.8439008 2.3380015 -1.9462657e-17)
(-0.12033925 1.3340807 2.0230133e-17)
(1.172858 0.77723031 -2.6506529e-17)
(1.8991129 0.37264451 2.6497087e-17)
(2.3863499 0.16483639 -2.1808468e-17)
(2.8078535 0.1363627 -1.6813293e-17)
(3.2824471 0.21715617 4.1343098e-17)
(3.8396032 0.35840477 5.9298209e-18)
(4.5285802 0.51243206 -3.8505142e-17)
(5.1650585 0.62635691 -5.1290422e-18)
(5.5426635 0.68687415 6.0652471e-18)
(5.3989381 0.69810914 9.1797252e-18)
(4.6396453 0.68343752 5.2673207e-18)
(3.3922402 0.66389746 -2.8923564e-18)
(1.8474734 0.64232415 -4.6088314e-18)
(0.25859926 0.61511915 4.0478745e-18)
(-1.115306 0.56430579 9.4862427e-18)
(-2.0796501 0.65715619 -1.681284e-17)
(-2.2009665 0.13090822 6.5408986e-18)
(-3.2132189 0.18120922 8.5793367e-18)
(-0.33146986 0.67327701 7.0061121e-19)
(1.2882546 0.60285193 -1.6410847e-17)
(2.721909 0.71707845 1.1781436e-17)
(3.7638277 0.76291368 1.2966957e-17)
(4.6648435 0.84908681 -3.8905473e-17)
(5.4967353 0.97013456 3.086747e-17)
(6.2430158 1.0869621 -2.6056988e-17)
(6.7364353 1.1905341 -1.0872545e-17)
(6.6621172 1.2399642 1.9536432e-17)
(5.8946146 1.2360307 -9.4189641e-18)
(4.4891179 1.1820095 1.1904436e-17)
(2.667226 1.0784178 -1.0587012e-17)
(0.73565725 0.9280094 -1.4861554e-18)
(-1.0166179 0.74186103 2.1961918e-18)
(-2.3738245 0.54160282 -3.6253255e-20)
(-3.2248034 0.35186562 -3.0440514e-18)
(-3.5241348 0.20008115 3.7802766e-18)
(-3.4542534 0.16262646 7.6743407e-19)
(-2.1831318 -0.29151081 -4.8514603e-18)
(-0.43542027 -2.5794284 -7.4821837e-18)
(1.7200214 -0.95934268 -4.009561e-18)
(3.0359263 -0.31233455 3.7536362e-18)
(4.4298101 0.28125464 5.0559023e-18)
(5.5582827 0.63092511 -2.3208854e-17)
(6.4873872 0.86116803 3.3475052e-18)
(7.0760612 1.0254668 3.1377882e-17)
(7.0238377 1.1599636 -1.352671e-17)
(6.1508519 1.213469 -2.5259182e-18)
(4.5107925 1.1875847 1.9007756e-17)
(2.3657766 1.0750932 -1.4836099e-17)
(0.1078717 0.88204193 1.214439e-17)
(-1.8773267 0.63690978 1.0722237e-17)
(-3.3165988 0.38037687 -1.7995014e-17)
(-4.0914227 0.15110055 3.3816331e-18)
(-4.2281413 -0.024059757 9.7436285e-19)
(-3.8578272 -0.13503797 1.0981729e-19)
(-3.1596201 -0.18559452 -5.2657069e-19)
(-2.3894481 -0.17392744 2.3224323e-18)
(-1.1336209 -0.23485184 -3.0300993e-18)
(2.7091828 -2.1173594 -2.2794508e-18)
(2.2883021 -2.0002901 1.4689513e-17)
(1.4301443 -1.2880769 -1.680579e-17)
(0.64260354 -0.60764571 4.1938942e-18)
(0.14314082 -0.15473543 6.6269044e-20)
(-0.076082014 0.1537321 -8.5661822e-19)
(-0.11924878 0.47529646 4.3516478e-18)
(-0.19956392 0.94177079 1.1055244e-17)
(-0.31841683 1.3294231 -1.0612871e-17)
(-0.36491597 1.346436 -8.9738594e-18)
(-0.29837039 1.0021849 -1.0552979e-18)
(-0.16161942 0.56087935 2.5044236e-18)
(-0.046539246 0.19097378 4.2394756e-19)
(-0.056503377 -0.084838256 -1.8266234e-18)
(-0.055580967 0.0071283035 -3.8107649e-18)
(0.25209678 0.70014865 2.7084297e-19)
(0.61534273 1.3104411 -8.4920191e-19)
(0.58763145 1.0287705 5.4231045e-18)
(0.36106074 0.18398262 -2.9213276e-18)
(0.15062882 -0.57048745 1.0249424e-18)
(-0.004850891 -0.87192454 2.594954e-18)
(-0.081776402 -0.72899598 -6.0729115e-18)
(-0.067706971 -0.38800886 -2.5149062e-18)
(-0.029978091 -0.084164165 7.5966486e-19)
(-0.0095877701 0.0086000442 -1.6948034e-19)
(0.043103806 -0.20856792 -2.061598e-19)
(0.13775195 -0.5476797 7.3412292e-19)
(0.18713826 -0.6000628 1.5016002e-18)
(0.14630252 -0.23503967 1.116739e-18)
(0.087805736 0.25395298 -1.5104082e-18)
(0.060983084 0.50294599 1.7497888e-18)
(0.025605037 0.40958505 8.347356e-20)
(-0.0035309523 0.18789249 2.3937113e-21)
(0.024099118 0.13480196 1.0831835e-18)
(0.10400632 0.26489274 -2.6578179e-19)
(0.15269947 0.29840843 1.6238053e-18)
(0.11984912 0.09598058 -1.9791135e-18)
(0.065719094 -0.16392305 -2.2887305e-20)
(0.033699324 -0.27118134 -2.8388759e-18)
(0.025491981 -0.2468688 -3.2124494e-19)
(0.062163045 -0.23099903 1.7794572e-19)
(0.09391469 -0.20251896 2.0706308e-20)
(0.061506282 -0.065943747 1.0398937e-18)
(0.016920028 0.10691064 1.9381602e-18)
(0.012391924 0.20216454 1.150536e-18)
(0.046417045 0.22293888 1.5939033e-19)
(0.069701652 0.17022176 -7.0898502e-19)
(0.062235213 0.064241397 -2.9749938e-18)
(0.008309063 -0.17825077 -6.1514613e-19)
(0.089626153 -0.10232376 1.8852415e-18)
(1.7526116 -1.57935 -3.9091162e-19)
(1.1516066 -1.1086095 -1.7749332e-17)
(0.39926923 -0.50304518 6.0755892e-19)
(-0.13212663 -0.05437164 1.1210297e-17)
(-0.37998684 0.17684391 -2.2240895e-18)
(-0.35397731 0.24302362 2.8284278e-18)
(-0.33500702 0.51795867 -2.2748554e-18)
(-0.48094391 1.0393316 -9.5364687e-18)
(-0.6233199 1.4127299 6.273394e-18)
(-0.58559186 1.3345543 3.2136772e-18)
(-0.39817174 0.9039584 5.1119364e-18)
(-0.18646064 0.44522198 1.9679821e-18)
(-0.033269329 0.14146984 -4.3632342e-18)
(-0.017423804 -0.077404793 2.1475366e-18)
(-0.083398024 -0.095798095 3.1567001e-18)
(0.12183135 0.45018785 7.5419485e-19)
(0.58145464 1.174712 4.4647865e-19)
(0.67220757 1.081396 -3.482578e-18)
(0.44531064 0.27156657 -2.2235043e-18)
(0.2377091 -0.47652123 -4.6472783e-18)
(0.071610261 -0.80287435 -4.6145767e-18)
(-0.037364688 -0.71074352 4.4717442e-18)
(-0.05980012 -0.403207 3.7606159e-18)
(-0.038675002 -0.1029932 8.9685377e-20)
(-0.0090712169 -0.011717422 9.9385079e-20)
(0.046969169 -0.23293446 -1.0985292e-19)
(0.11734549 -0.55933825 -7.733529e-19)
(0.13204596 -0.58866663 -8.4837878e-19)
(0.063425008 -0.20951967 -2.4214155e-18)
(0.008741123 0.27384532 2.1038336e-18)
(0.0087865113 0.52125935 -2.8260133e-18)
(0.0031060425 0.42383541 3.0141456e-19)
(-0.011623422 0.18512962 -7.414974e-19)
(0.015915914 0.11373574 2.0013469e-19)
(0.10151517 0.24279994 -2.9039914e-19)
(0.16839746 0.29110928 -4.7796788e-18)
(0.14706414 0.096915449 4.5563029e-18)
(0.09135873 -0.1567684 -1.1784983e-18)
(0.047784187 -0.26639926 4.9298615e-18)
(0.031836078 -0.25123724 -2.8758388e-19)
(0.062191057 -0.23737096 -2.1494631e-19)
(0.082474691 -0.19833984 2.8995267e-20)
(0.041892905 -0.053951066 -2.5729894e-18)
(0.00061837495 0.11373472 -3.1825759e-18)
(0.0020065161 0.20003851 -1.8456463e-18)
(0.041403923 0.21672605 1.0946131e-19)
(0.073015291 0.16821773 3.0595725e-18)
(0.068852889 0.066156997 2.6621062e-19)
(0.017930076 -0.17918291 5.8075681e-19)
(0.08517309 -0.10482273 -1.2708351e-18)
(0.45313536 -0.8938739 4.1305238e-18)
(0.062209476 -0.48514629 7.2058059e-18)
(-0.40507492 -0.04140824 -4.1415467e-18)
(-0.63754696 0.17651823 -1.0254116e-18)
(-0.53771747 0.11034487 1.5768686e-18)
(-0.3570201 0.11160941 -2.3097297e-18)
(-0.46263033 0.52200979 9.7763786e-18)
(-0.76102611 1.1227661 -1.7937541e-19)
(-0.89399234 1.4229333 -6.3858725e-18)
(-0.72921892 1.2270609 5.7171591e-18)
(-0.42221129 0.75062205 -3.0686114e-18)
(-0.16627915 0.3216924 -5.096263e-18)
(-0.016582287 0.094939835 1.6782288e-18)
(0.018028199 -0.044670479 2.9697625e-18)
(-0.073275524 -0.14192707 1.785208e-18)
(-0.007228953 0.18328935 -3.3362987e-18)
(0.472501 0.94228786 -3.2048727e-18)
(0.76328329 1.1455142 -5.8443623e-18)
(0.56324483 0.47339926 1.5191048e-17)
(0.31732428 -0.30836298 3.2129047e-18)
(0.13618453 -0.69836108 -1.3132228e-18)
(0.0042398729 -0.67475974 1.1048046e-18)
(-0.051058398 -0.41476035 -2.8000058e-18)
(-0.046636832 -0.1281676 -2.7262146e-19)
(-0.01029433 -0.033086193 1.329723e-18)
(0.047144268 -0.24414087 6.6587643e-19)
(0.093959709 -0.55529975 1.3577598e-18)
(0.072928367 -0.57973845 -1.0962598e-18)
(-0.013598402 -0.22029815 1.6093075e-18)
(-0.062100898 0.25586545 -3.9895878e-19)
(-0.041203925 0.515609 7.3172868e-19)
(-0.017352843 0.42957367 -3.2846793e-19)
(-0.0159379 0.18367537 1.6802439e-18)
(0.0091553113 0.092850529 -2.2686645e-18)
(0.095605632 0.21603772 1.5027512e-18)
(0.18065762 0.28496366 6.2426489e-18)
(0.17521491 0.11320204 6.7485582e-19)
(0.11527876 -0.13540334 -1.4099236e-18)
(0.060226351 -0.25376606 -2.8179332e-18)
(0.03726373 -0.2522763 1.7560406e-18)
(0.060143815 -0.24218428 -5.4594241e-20)
(0.068344898 -0.19545028 -5.7987715e-19)
(0.02257317 -0.048776797 1.6983833e-18)
(-0.014190212 0.11458755 8.3448038e-19)
(-0.0075178285 0.19445567 5.2415553e-19)
(0.036063073 0.20860148 -9.25353e-19)
(0.075714625 0.1659572 -2.5456592e-18)
(0.07531606 0.070524731 1.085259e-17)
(0.027082567 -0.17775046 -8.565636e-19)
(0.079300254 -0.10706378 -1.4795241e-18)
(-0.67872645 -0.46993797 -1.7091754e-18)
(-0.69588597 -0.18949579 -5.573441e-18)
(-0.75213903 0.035496342 2.6104635e-18)
(-0.58063682 -0.0085181711 -1.7731101e-18)
(-0.26726553 -0.13802137 6.3695616e-19)
(-0.29448082 0.088082491 3.9815531e-18)
(-0.71808465 0.6956795 -3.9527586e-18)
(-1.1176639 1.2617567 -2.8553174e-18)
(-1.1308361 1.3830701 -3.8665596e-18)
(-0.79937715 1.056141 -1.3749839e-18)
(-0.39827385 0.5746682 3.8484116e-18)
(-0.13061312 0.2085284 -3.1374275e-19)
(-0.0087267779 0.048492407 1.8416875e-18)
(0.032978979 -0.013075726 -2.3915556e-19)
(-0.036725947 -0.12338939 -2.0303302e-18)
(-0.097234876 -0.03002334 -4.0071131e-18)
(0.26429481 0.60341398 3.9249146e-18)
(0.76319141 1.093492 4.9042256e-18)
(0.69108146 0.66489094 -1.053609e-17)
(0.39995571 -0.10833584 2.4590092e-18)
(0.19045434 -0.57255751 6.5994785e-18)
(0.040429131 -0.62693296 -4.3163691e-18)
(-0.042107986 -0.42163603 2.4979437e-18)
(-0.054013013 -0.15562296 -1.0012907e-18)
(-0.014391135 -0.053613879 -4.3083932e-18)
(0.043625259 -0.24388413 -9.3814045e-19)
(0.068756572 -0.53725043 6.850514e-19)
(0.018582713 -0.56817185 -1.5814657e-18)
(-0.07859421 -0.23079878 -9.5711667e-19)
(-0.12692975 0.23782776 -2.6830248e-18)
(-0.093888858 0.50765607 -3.8006433e-19)
(-0.042758646 0.4344944 -1.5383332e-19)
(-0.022093365 0.18389512 -6.675592e-19)
(0.00087550689 0.072427409 -3.5845831e-19)
(0.083338073 0.18486175 2.7266357e-19)
(0.18226884 0.26992869 -5.8744349e-18)
(0.19436352 0.12840768 -8.356128e-18)
(0.13550467 -0.11014958 1.3637244e-18)
(0.070899956 -0.2376143 2.8222911e-18)
(0.041094008 -0.25106287 -3.5235602e-18)
(0.055395695 -0.24512015 6.9678402e-19)
(0.052284793 -0.19252355 1.2100371e-18)
(0.0034738724 -0.043547714 -5.4482353e-19)
(-0.029075113 0.11602804 -2.4581556e-19)
(-0.017589635 0.18911073 1.3125525e-20)
(0.02940747 0.19976023 1.3549542e-18)
(0.076744292 0.16184653 2.2885788e-19)
(0.080935323 0.073781573 -7.0968133e-18)
(0.035774855 -0.17496827 3.1962121e-18)
(0.071996566 -0.10903834 1.3254264e-18)
(-0.37351236 -0.45965604 -1.5136473e-17)
(-0.17246805 -0.32023271 1.5533087e-17)
(0.026234005 -0.27056195 -2.0354214e-18)
(0.17487684 -0.32662645 -2.2818876e-18)
(-0.016762147 -0.15487285 -1.7176279e-18)
(-0.59013471 0.36900595 -3.5752323e-18)
(-1.2227603 0.99239208 -5.3225538e-18)
(-1.48469 1.3331519 3.9670205e-18)
(-1.2510377 1.2236141 4.0612719e-18)
(-0.76029186 0.81600211 5.9762814e-18)
(-0.32398376 0.39074334 -7.6685113e-18)
(-0.083769895 0.11748211 2.5669606e-19)
(-0.0021431452 0.013491379 4.1157221e-18)
(0.027622482 0.0040392591 -3.1581131e-18)
(0.003013086 -0.064811908 -3.8934658e-18)
(-0.11151925 -0.1314695 4.5341442e-18)
(0.034840979 0.24303063 4.0157e-18)
(0.61161249 0.89347089 -6.3432779e-18)
(0.80563348 0.82826199 7.439606e-20)
(0.50605485 0.12544943 -2.9640558e-18)
(0.24187684 -0.42271442 -7.6989177e-18)
(0.071654176 -0.56589073 2.8389551e-18)
(-0.031847368 -0.42193253 -2.1167753e-18)
(-0.060136879 -0.18338236 1.122284e-18)
(-0.021483773 -0.074102897 1.1582304e-18)
(0.037158774 -0.23514538 -1.602429e-18)
(0.046385801 -0.50665189 -4.7160279e-18)
(-0.023964237 -0.54758403 6.5439414e-18)
(-0.1295274 -0.24227601 -5.6331501e-18)
(-0.18105166 0.20811417 -7.787921e-19)
(-0.14335155 0.48714463 4.2376654e-19)
(-0.070071977 0.43236264 -1.2193285e-18)
(-0.028623489 0.18492745 -1.3133985e-18)
(-0.0068318362 0.054733313 1.5013833e-18)
(0.067458329 0.15287568 -1.9564257e-18)
(0.17536958 0.25331092 -1.0843055e-18)
(0.20576332 0.14222252 5.2324857e-18)
(0.15008429 -0.083401612 1.7167118e-18)
(0.079440044 -0.21974981 -4.9693559e-18)
(0.043539606 -0.24796187 1.6018072e-18)
(0.048435574 -0.2456939 -9.7978748e-19)
(0.035292641 -0.18800216 -2.4036677e-18)
(-0.015420857 -0.038532368 1.3681602e-18)
(-0.043723923 0.1154563 8.2038958e-19)
(-0.027539396 0.18209281 4.7234224e-21)
(0.022035071 0.18988566 5.4719348e-19)
(0.076199505 0.15715885 -2.3048786e-18)
(0.085689995 0.076466866 -3.5290332e-18)
(0.044058682 -0.17112403 -5.6967615e-18)
(0.063316378 -0.11080007 -2.6783844e-19)
(0.93592096 -0.50456205 -9.069767e-18)
(0.98720055 -0.3394315 -4.3989142e-19)
(0.77056346 -0.18056475 8.5252419e-18)
(0.097704981 0.0092714325 -4.3802761e-18)
(-0.72266003 0.37810336 5.8612886e-19)
(-1.4418641 0.85051848 -5.4125201e-18)
(-1.81114 1.1880366 8.136927e-18)
(-1.6838213 1.2095799 2.3478261e-18)
(-1.1839301 0.93198686 -5.4693476e-18)
(-0.61788493 0.53819994 -2.7640109e-18)
(-0.22227986 0.21947445 5.8141309e-18)
(-0.040134608 0.047343493 -6.0733068e-20)
(0.0042794862 -0.010338517 -1.5281414e-18)
(0.012603251 0.0011169045 -2.6046721e-18)
(0.022096893 -0.0096790089 3.9293058e-18)
(-0.065368775 -0.11966824 3.7363806e-18)
(-0.11431452 -0.027046781 -5.3095872e-18)
(0.31647438 0.5472754 -5.2856468e-20)
(0.80913995 0.88092286 2.9172209e-18)
(0.65529002 0.39667606 8.2532481e-19)
(0.31625067 -0.2301687 1.7410896e-18)
(0.10188199 -0.48363303 -1.0862863e-18)
(-0.022247978 -0.41180716 7.4778834e-20)
(-0.066086593 -0.20743793 -1.8244496e-18)
(-0.031712806 -0.09257193 7.8382838e-18)
(0.028157284 -0.21910263 3.0128979e-18)
(0.029348002 -0.46503363 3.3609045e-18)
(-0.053309859 -0.51960338 -3.4255039e-18)
(-0.16342801 -0.25556996 1.0815926e-17)
(-0.22016868 0.16905641 1.5215206e-17)
(-0.18745407 0.45118343 -4.1464854e-19)
(-0.098214742 0.4179071 3.6065966e-18)
(-0.034916039 0.18334915 1.9733562e-19)
(-0.012591788 0.039952525 -6.3301333e-19)
(0.050051215 0.11981976 -5.3058651e-19)
(0.16027328 0.23694984 9.2327895e-18)
(0.20766596 0.1511992 -3.0694173e-18)
(0.15959436 -0.058701343 -2.9361492e-18)
(0.085897664 -0.19977822 -2.9910035e-19)
(0.044619758 -0.24173002 4.0449842e-18)
(0.039870813 -0.24336545 2.6295284e-19)
(0.017899836 -0.18237647 3.2440585e-18)
(-0.033773867 -0.035178274 1.1582485e-18)
(-0.057955692 0.1118804 -1.768742e-18)
(-0.037133918 0.17298063 -9.0046273e-19)
(0.014317798 0.17850225 -2.6766593e-18)
(0.074164665 0.15182391 1.2641752e-18)
(0.089365667 0.0793646 1.1868789e-18)
(0.052051596 -0.16608666 2.8131325e-18)
(0.053364236 -0.1122478 9.1995573e-19)
(-0.69692537 0.024610598 -2.0592426e-18)
(-0.43767936 0.2624847 3.2071628e-18)
(-0.89485707 0.45540702 -4.9565983e-18)
(-1.589638 0.58689487 -1.7948051e-18)
(-2.0883816 0.79611595 1.0986993e-18)
(-2.2605497 0.98967503 7.8776114e-18)
(-2.0645433 1.0255635 6.6049021e-18)
(-1.5557826 0.8600508 -5.6886559e-19)
(-0.92986252 0.56879199 -3.8559323e-18)
(-0.41499358 0.28144132 2.9345447e-18)
(-0.11931263 0.089708155 1.8633022e-18)
(-0.0060121982 0.003583331 -3.1197184e-18)
(0.011759363 -0.020445817 -1.8793103e-18)
(0.0032399568 -0.010971454 5.8856966e-19)
(0.018262513 0.010408805 2.4766611e-18)
(-0.0065816282 -0.056208162 -4.2363784e-18)
(-0.13347631 -0.14117007 -2.7356455e-18)
(0.014730073 0.16316925 8.9716063e-18)
(0.59901085 0.70750987 -1.0291071e-18)
(0.77665612 0.63695366 -2.5208221e-18)
(0.44377718 0.028191471 9.7552103e-18)
(0.15223913 -0.36855477 -6.9075857e-18)
(-0.0088265309 -0.39890887 2.4553458e-18)
(-0.071304403 -0.23877954 2.1763173e-18)
(-0.044107253 -0.12033939 -6.3611521e-18)
(0.017580738 -0.20909323 2.0609174e-18)
(0.018284441 -0.42563904 -2.7793228e-18)
(-0.068663912 -0.49651904 -2.3517883e-18)
(-0.17930485 -0.27694868 -1.4509243e-18)
(-0.24638558 0.1109579 -1.2473404e-17)
(-0.2285344 0.4075962 -1.6337511e-18)
(-0.12652462 0.40246673 -1.7215968e-18)
(-0.039738377 0.18141817 1.8328684e-18)
(-0.014809464 0.027100261 2.1272343e-18)
(0.032675691 0.083700831 2.1736921e-18)
(0.14237752 0.2060525 -4.1289539e-18)
(0.19760581 0.16620777 7.1010279e-18)
(0.16350742 -0.029075989 3.0017345e-18)
(0.091777715 -0.18003264 5.403452e-18)
(0.045090784 -0.23535323 -4.8381892e-18)
(0.030335632 -0.24041614 -2.2721241e-18)
(0.0004797567 -0.17723653 -1.6056077e-18)
(-0.05182355 -0.03421317 -4.8818289e-18)
(-0.072326269 0.10674776 2.0214507e-18)
(-0.046379197 0.16467979 1.4311149e-18)
(0.0065820956 0.16634028 1.8759577e-18)