/*--------------------------------*- C++ -*----------------------------------*\
| =========                 |                                                 |
| \\      /  F ield         | OpenFOAM: The Open Source CFD Toolbox           |
|  \\    /   O peration     | Version:  2406                                  |
|   \\  /    A nd           | Website:  www.openfoam.com                      |
|    \\/     M anipulation  |                                                 |
\*---------------------------------------------------------------------------*/
FoamFile
{
    version     2.0;
    format      ascii;
    arch        "LSB;label=32;scalar=64";
    class       volScalarField;
    location    "30";
    object      p;
}
// * * * * * * * * * * * * * * * * * * * * * * * * * * * * * * * * * * * * * //

dimensions      [0 2 -2 0 0 0 0];

internalField   nonuniform List<scalar> 
9200
(
-0.29487885
-0.29451696
-0.29310668
-0.28996628
-0.28505834
-0.27836703
-0.27007057
-0.26050829
-0.25012907
-0.23942846
-0.22890067
-0.21899562
-0.21005561
-0.20226031
-0.19561423
-0.18997939
-0.1851258
-0.1807626
-0.17659661
-0.17222454
-0.30110177
-0.29979134
-0.29757125
-0.29402753
-0.28910124
-0.28274976
-0.27497739
-0.26585777
-0.25556162
-0.24441326
-0.23289354
-0.22155204
-0.21086977
-0.20115304
-0.19250256
-0.18484547
-0.1779936
-0.17170104
-0.16571597
-0.15979967
-0.30969339
-0.30702371
-0.30358749
-0.29929778
-0.29406472
-0.28769064
-0.27986393
-0.27031875
-0.25908123
-0.24658905
-0.23356626
-0.2207602
-0.20872283
-0.19772893
-0.18781135
-0.17884859
-0.17064968
-0.1630161
-0.15576349
-0.14876303
-0.32040167
-0.31625824
-0.31136535
-0.30609278
-0.30021223
-0.29316641
-0.28425964
-0.27310784
-0.25997831
-0.24568975
-0.23121035
-0.21729938
-0.20437077
-0.19254054
-0.18174433
-0.17184243
-0.16268057
-0.15411833
-0.14601913
-0.13830868
-0.3336281
-0.3279326
-0.32148537
-0.31502765
-0.30793013
-0.2991434
-0.28785924
-0.27406896
-0.25858357
-0.24254089
-0.22688762
-0.21216438
-0.19855983
-0.18605824
-0.17456067
-0.16394837
-0.15410383
-0.14491901
-0.13628043
-0.12814171
-0.34969525
-0.34243065
-0.33431816
-0.32627989
-0.31699043
-0.30510377
-0.29028949
-0.27330819
-0.25544159
-0.23783148
-0.2211595
-0.20568708
-0.1914341
-0.17832389
-0.16625366
-0.15511702
-0.14480883
-0.13523041
-0.12627917
-0.11792091
-0.36851698
-0.35971349
-0.34970524
-0.33932953
-0.32651803
-0.31023167
-0.29118825
-0.27091418
-0.2508119
-0.23174767
-0.2140729
-0.19783209
-0.18294619
-0.16930351
-0.15678802
-0.14528558
-0.13468696
-0.12489121
-0.11580035
-0.10737766
-0.38941099
-0.37912546
-0.36679936
-0.35294454
-0.33518565
-0.31358555
-0.29010973
-0.26669762
-0.24452343
-0.22406903
-0.20540253
-0.18841855
-0.1729674
-0.15889855
-0.14606914
-0.1343461
-0.12360826
-0.11374606
-0.10466164
-0.096303021
-0.411003
-0.39923207
-0.38384652
-0.36509845
-0.34126171
-0.31407167
-0.28643144
-0.26021882
-0.23618782
-0.21445959
-0.19488978
-0.17726273
-0.16136498
-0.1470025
-0.13400021
-0.12220189
-0.11147
-0.10168218
-0.09273676
-0.084556704
-0.43132387
-0.41793886
-0.39842812
-0.37342703
-0.34301846
-0.31062329
-0.27943182
-0.25088335
-0.22528477
-0.20248167
-0.18218117
-0.16408057
-0.14790509
-0.13341579
-0.12040448
-0.10869098
-0.098118887
-0.088550946
-0.079877805
-0.071990738
-0.43988755
-0.44147738
-0.443393
-0.4461443
-0.45043725
-0.45619327
-0.46304645
-0.47049888
-0.47654736
-0.48240006
-0.48588569
-0.48617968
-0.4826009
-0.47478783
-0.46288858
-0.44771346
-0.43074962
-0.4139756
-0.39960034
-0.39034884
-0.40851133
-0.40978901
-0.41071853
-0.41146647
-0.41275641
-0.41457199
-0.41650705
-0.41786224
-0.41915626
-0.41889987
-0.41658585
-0.41186782
-0.40463881
-0.39517478
-0.38422905
-0.37307001
-0.36342913
-0.35722459
-0.35604348
-0.3612949
-0.38040021
-0.38127542
-0.38128058
-0.38031603
-0.37903336
-0.37747223
-0.37534772
-0.37234481
-0.36826452
-0.36270341
-0.35549987
-0.34674501
-0.33685248
-0.32661608
-0.31722225
-0.31012523
-0.3069533
-0.30921336
-0.31789038
-0.33296279
-0.35632752
-0.35685703
-0.35620495
-0.35404917
-0.35088326
-0.34679248
-0.34158412
-0.33510869
-0.32724258
-0.31796326
-0.30746013
-0.29620619
-0.2849806
-0.27486289
-0.26714974
-0.26329672
-0.26462605
-0.27209511
-0.28603198
-0.30551681
-0.33630622
-0.33663654
-0.33566384
-0.33286424
-0.32854923
-0.32273352
-0.31541691
-0.30656404
-0.29623518
-0.28464891
-0.27224722
-0.25972462
-0.24807283
-0.23844453
-0.23210573
-0.23029078
-0.23394985
-0.24350964
-0.25870314
-0.27854883
-0.31999807
-0.32029715
-0.31927583
-0.31620735
-0.31121932
-0.3043403
-0.29561533
-0.28516707
-0.27324432
-0.2602538
-0.24683463
-0.23379315
-0.2221805
-0.21313166
-0.20770776
-0.20673605
-0.21085909
-0.2205204
-0.23565718
-0.25462394
-0.3071539
-0.30753628
-0.30659387
-0.30343176
-0.29805228
-0.29046737
-0.28078026
-0.26924969
-0.25628858
-0.24249806
-0.22859706
-0.21546535
-0.2041721
-0.19595974
-0.19200621
-0.19313048
-0.19937325
-0.20981325
-0.22294165
-0.23638099
-0.29789138
-0.29835873
-0.29746997
-0.2942335
-0.28861859
-0.28063288
-0.27043618
-0.25839477
-0.24505549
-0.23119142
-0.21777677
-0.20591602
-0.19664957
-0.19078146
-0.18880569
-0.19078395
-0.1962144
-0.20397396
-0.21258198
-0.22108268
-0.29264992
-0.29308291
-0.29216619
-0.28891171
-0.28330942
-0.27540636
-0.26541104
-0.25377947
-0.24122726
-0.22853565
-0.2166091
-0.20635016
-0.19851291
-0.1935449
-0.19150545
-0.19206066
-0.19451693
-0.19795922
-0.20143546
-0.20503562
-0.29175603
-0.29194594
-0.29090151
-0.28774055
-0.28245542
-0.27512282
-0.26592019
-0.25526587
-0.24381248
-0.23229778
-0.22145222
-0.21192932
-0.20419192
-0.19841784
-0.19448275
-0.19202827
-0.1905762
-0.18965897
-0.18892135
-0.188309
-0.38914756
-0.39853159
-0.41769326
-0.44001088
-0.45649775
-0.45879852
-0.44038704
-0.39865013
-0.33851337
-0.27323274
-0.21757612
-0.17947997
-0.15911842
-0.15338069
-0.15981304
-0.17930035
-0.21386299
-0.25441874
-0.27758741
-0.26553468
-0.22260973
-0.17438814
-0.13979571
-0.12197541
-0.1176344
-0.12587253
-0.15127461
-0.19343303
-0.22915906
-0.22964711
-0.19036584
-0.14208941
-0.11265409
-0.10377279
-0.11324942
-0.13873354
-0.15968192
-0.15338867
-0.12120025
-0.092367409
-0.086283299
-0.10127504
-0.11677415
-0.11025619
-0.080171243
-0.055517769
-0.054905341
-0.061646417
-0.044265176
-0.019435228
-0.37987624
-0.4068689
-0.43802857
-0.46636537
-0.48427744
-0.4846824
-0.46271121
-0.41622858
-0.35085983
-0.28089212
-0.22135835
-0.1795875
-0.1552038
-0.14494969
-0.14621573
-0.15921371
-0.18614356
-0.22059433
-0.24306282
-0.23638192
-0.20203124
-0.16121236
-0.13183384
-0.11778544
-0.11640172
-0.12720598
-0.15528117
-0.20043452
-0.23869848
-0.23972816
-0.19780541
-0.14497528
-0.1114122
-0.099356542
-0.10562996
-0.12773775
-0.14697744
-0.14218143
-0.11405108
-0.089619983
-0.087346536
-0.10534705
-0.12222878
-0.11483071
-0.082066426
-0.053882161
-0.049915738
-0.054809897
-0.039075302
-0.016810301
-0.36391168
-0.39929184
-0.43569132
-0.46676936
-0.48496559
-0.48527948
-0.4621293
-0.41420228
-0.34789814
-0.27768624
-0.21775812
-0.17452164
-0.1473855
-0.13331152
-0.12974864
-0.13633546
-0.15521149
-0.18277224
-0.20365364
-0.20218267
-0.17679799
-0.14395838
-0.12022343
-0.11010935
-0.1115679
-0.12441988
-0.15408067
-0.20093464
-0.24134867
-0.24397381
-0.20131661
-0.14529177
-0.10818546
-0.093241757
-0.096369286
-0.11488744
-0.13220112
-0.1289469
-0.10515113
-0.085251469
-0.086757177
-0.10764927
-0.12587022
-0.11781308
-0.082823848
-0.051480437
-0.044364462
-0.047481162
-0.033482457
-0.014004321
-0.34186667
-0.37799091
-0.41463757
-0.44684324
-0.46604256
-0.46635996
-0.44338543
-0.39670623
-0.33335823
-0.26684508
-0.20948424
-0.16664631
-0.13788532
-0.12072262
-0.11288306
-0.11358961
-0.12456906
-0.14477552
-0.16290289
-0.16555832
-0.14860789
-0.12362123
-0.10544223
-0.099128809
-0.10320485
-0.11758752
-0.14775906
-0.19494958
-0.23699419
-0.24228184
-0.2009034
-0.1432768
-0.1033826
-0.085927061
-0.086103102
-0.1009745
-0.11617117
-0.11431392
-0.094820836
-0.079366344
-0.084486069
-0.10807084
-0.12757511
-0.11914948
-0.082478238
-0.048427834
-0.038422457
-0.039842871
-0.027615036
-0.011039699
-0.31553485
-0.34820045
-0.38199496
-0.41374768
-0.43371522
-0.43406458
-0.41191538
-0.36870611
-0.31151761
-0.2516456
-0.19893438
-0.15785246
-0.12840478
-0.1088897
-0.09749668
-0.093205718
-0.09707579
-0.10982242
-0.12411568
-0.12901522
-0.11925486
-0.10146797
-0.088300455
-0.085362162
-0.091722976
-0.10714556
-0.1368399
-0.18304727
-0.22619455
-0.23514399
-0.19679998
-0.13921363
-0.097419759
-0.077904038
-0.07543084
-0.086781327
-0.099696237
-0.098965943
-0.083479398
-0.072160838
-0.080570786
-0.10655889
-0.12730153
-0.11885472
-0.081094754
-0.044846988
-0.032264568
-0.032080497
-0.021608511
-0.0079442525
-0.29150402
-0.31667453
-0.34524448
-0.37495851
-0.39339467
-0.39286864
-0.3724604
-0.33489468
-0.28617173
-0.23468423
-0.18781207
-0.14938068
-0.12001454
-0.098852852
-0.084668989
-0.076410876
-0.074422745
-0.080104709
-0.089852615
-0.095046515
-0.090441182
-0.078806953
-0.069863654
-0.069635511
-0.077815684
-0.093836813
-0.12229707
-0.1664323
-0.21010286
-0.22347159
-0.18943843
-0.1334761
-0.09069826
-0.069599722
-0.064824173
-0.072912355
-0.083508885
-0.083522766
-0.071543512
-0.063889475
-0.075145808
-0.10318102
-0.12511157
-0.11700667
-0.078777594
-0.040865024
-0.026042991
-0.024372459
-0.015596382
-0.0047483765
-0.2699693
-0.28487151
-0.30555007
-0.33062868
-0.34643476
-0.34614034
-0.32976022
-0.2999253
-0.26090679
-0.21837512
-0.17770571
-0.14232875
-0.11352246
-0.091237566
-0.074866437
-0.063552743
-0.057059008
-0.056592585
-0.061366694
-0.065403234
-0.063797788
-0.056924329
-0.051295688
-0.052921214
-0.062312726
-0.078554296
-0.10532332
-0.14656918
-0.19003204
-0.20848567
-0.17964995
-0.12680304
-0.083735983
-0.061392711
-0.054656033
-0.059743322
-0.068104413
-0.068533096
-0.059440601
-0.054856941
-0.068429971
-0.098103178
-0.12114174
-0.11375283
-0.075693809
-0.036635616
-0.019887431
-0.016869504
-0.0097069205
-0.001486815
-0.24716883
-0.25378528
-0.26639372
-0.28498212
-0.29827259
-0.3000345
-0.2895717
-0.26829025
-0.23874009
-0.20456728
-0.16973469
-0.13741141
-0.10941492
-0.0863926
-0.068299395
-0.054636892
-0.044868838
-0.039546306
-0.039269619
-0.040968994
-0.040469061
-0.036902732
-0.033767762
-0.03634571
-0.046188467
-0.062279795
-0.087157038
-0.12495975
-0.16716928
-0.19177624
-0.16836811
-0.11978533
-0.076986481
-0.053649716
-0.045331196
-0.047760037
-0.053839643
-0.05439857
-0.047589766
-0.045419838
-0.060713531
-0.091560968
-0.11558709
-0.10927127
-0.071977204
-0.032310643
-0.013967138
-0.0097069128
-0.0040535975
0.0017992684
-0.21866725
-0.22419611
-0.23273827
-0.2455897
-0.25613735
-0.25957037
-0.25412318
-0.239867
-0.21809918
-0.19113237
-0.16186894
-0.13306035
-0.10669427
-0.083838788
-0.064859478
-0.049655897
-0.037781126
-0.029138054
-0.024411783
-0.02287083
-0.021624829
-0.019493449
-0.017859266
-0.020648765
-0.030112324
-0.045634593
-0.068650871
-0.10281873
-0.14209189
-0.17465411
-0.15491483
-0.11122369
-0.07020398
-0.046649879
-0.037254211
-0.037648554
-0.041578668
-0.041594544
-0.036298047
-0.035869303
-0.052276045
-0.083819509
-0.10867144
-0.10358148
-0.067523345
-0.027945977
-0.0084996521
-0.0030745723
0.0012584161
0.0050670124
-0.19140569
-0.19576638
-0.20164247
-0.20982603
-0.21725413
-0.22078257
-0.2184302
-0.20956569
-0.19455335
-0.17458103
-0.15148648
-0.12733167
-0.1039115
-0.082469926
-0.063681044
-0.047801398
-0.034758307
-0.024211998
-0.016272157
-0.011466392
-0.0087471468
-0.0070635397
-0.0056404908
-0.0078215272
-0.015943344
-0.030170401
-0.051250957
-0.081850186
-0.11662292
-0.13146072
-0.1345539
-0.099916975
-0.063224062
-0.040462258
-0.030345169
-0.029292507
-0.031688824
-0.030925124
-0.026152166
-0.026718864
-0.043580108
-0.075233517
-0.10049232
-0.096583912
-0.062347799
-0.023593069
-0.0035494173
0.0028832083
0.0061120068
0.0082610071
-0.18053046
-0.18136131
-0.18442931
-0.19001606
-0.19534224
-0.19767342
-0.19562165
-0.18856083
-0.17640193
-0.15974352
-0.13986019
-0.1183865
-0.096892856
-0.076587064
-0.058222111
-0.042155788
-0.028441586
-0.016855364
-0.0073299857
-0.00038242647
0.0043676354
0.0096872009
0.010953739
0.0088158153
0.00028607027
-0.014339942
-0.035778582
-0.066293948
-0.10052134
-0.11873195
-0.12124197
-0.090972786
-0.055732858
-0.033268276
-0.022853354
-0.020557981
-0.02139839
-0.018372328
-0.014925032
-0.01675423
-0.035230404
-0.067722937
-0.093064789
-0.090035664
-0.057389307
-0.019317888
0.0011888752
0.008272874
0.010358968
0.011210276
-0.16351904
-0.16288539
-0.1645388
-0.16828635
-0.17131276
-0.17177227
-0.16894903
-0.16248658
-0.15220423
-0.13837677
-0.1218206
-0.10367838
-0.085120171
-0.067123739
-0.050371489
-0.035251007
-0.021923321
-0.010314231
-0.0003035641
0.0076661629
0.013071877
0.015787124
0.017764106
0.015665378
0.0082517901
-0.0046188443
-0.023307961
-0.049512461
-0.080070575
-0.099624263
-0.10218531
-0.075847373
-0.045526355
-0.025801639
-0.015884948
-0.012822205
-0.012834489
-0.011399693
-0.0074577344
-0.0098305393
-0.027837916
-0.05918927
-0.083990419
-0.081712624
-0.050908846
-0.014580028
0.0055190453
0.012868262
0.01371863
0.013790211
-0.14808394
-0.14752206
-0.14767525
-0.14987122
-0.15143768
-0.15074221
-0.14741417
-0.14132489
-0.13230086
-0.12044088
-0.10627797
-0.090632878
-0.074386187
-0.058314368
-0.043004776
-0.028830238
-0.015979238
-0.0044966061
0.0056452198
0.014218117
0.020646569
0.024481108
0.025729401
0.023370634
0.016655271
0.0053608605
-0.010995001
-0.03438493
-0.0628908
-0.08420438
-0.08372571
-0.061025306
-0.035480322
-0.018420824
-0.0091659858
-0.0055346898
-0.004730997
-0.002823896
0.00018608509
-0.0027611141
-0.02026156
-0.050335738
-0.07430176
-0.072555405
-0.043926863
-0.0097777991
0.0096480319
0.017137002
0.016794273
0.01632415
-0.1327151
-0.13145103
-0.13080161
-0.13194628
-0.1325572
-0.13118581
-0.12766939
-0.12203713
-0.11415557
-0.10402191
-0.091960904
-0.078541245
-0.064407302
-0.050159949
-0.036290783
-0.023149651
-0.010948836
0.0002003281
0.010241299
0.019020923
0.026039746
0.030664864
0.032534742
0.030848913
0.025045652
0.015078847
0.0003078946
-0.021237024
-0.047184842
-0.065569587
-0.064799466
-0.046395597
-0.025691362
-0.01134136
-0.0028745776
0.0011656599
0.0026419104
0.004814063
0.0074776251
0.0042636344
-0.012678917
-0.041220791
-0.063816019
-0.062510261
-0.036501381
-0.0049944894
0.013456875
0.020914325
0.019463162
0.018765666
-0.11731623
-0.11592687
-0.11498353
-0.11550564
-0.1155313
-0.11384056
-0.11036572
-0.10521336
-0.098297994
-0.089574571
-0.07923531
-0.067673002
-0.055358364
-0.042751898
-0.030255685
-0.018184489
-0.0067577029
0.0038778194
0.013602098
0.022256225
0.029507471
0.034737286
0.037302736
0.03652936
0.031932898
0.023368318
0.010129797
-0.0092294102
-0.031826887
-0.047361198
-0.046855471
-0.032683262
-0.016530096
-0.0047407838
0.0028754811
0.007154039
0.0091611919
0.011351194
0.013756947
0.010559042
-0.0052597302
-0.031579119
-0.052447617
-0.051818764
-0.028856597
-0.00037776002
0.016821513
0.024066992
0.021548563
0.020998681
-0.102363
-0.10111472
-0.10010779
-0.10024787
-0.099916994
-0.098112162
-0.094815113
-0.090166006
-0.084118521
-0.076613998
-0.067759168
-0.057819404
-0.047132741
-0.036046319
-0.024882829
-0.013917868
-0.0033682315
0.0065986388
0.015830564
0.024146708
0.031282013
0.036739089
0.039906098
0.040131701
0.036884786
0.029754016
0.017993526
0.00097722633
-0.018033262
-0.030603142
-0.03042529
-0.020271605
-0.0082329722
0.0012392614
0.0079809527
0.012333152
0.014737391
0.016895801
0.018925164
0.015937224
0.0018107014
-0.021688933
-0.040664562
-0.04086581
-0.021225909
0.0039255502
0.01962477
0.026480296
0.022942087
0.022907066
-0.087986758
-0.087074781
-0.086185882
-0.086161382
-0.085670871
-0.08391321
-0.080901681
-0.076780872
-0.07152849
-0.065086072
-0.057509929
-0.048979003
-0.039735495
-0.030039881
-0.020148498
-0.010297439
-0.00069143269
0.0084937897
0.017091165
0.024912066
0.031723493
0.037074666
0.040542888
0.041543894
0.039476973
0.033706803
0.023570022
0.0092878611
-0.0058125413
-0.015568967
-0.016154884
-0.0096139332
-0.00099569882
0.006499699
0.012374711
0.016642406
0.019318476
0.021408286
0.023032568
0.020361543
0.0082251813
-0.012117148
-0.029022581
-0.030074524
-0.013892077
0.007761464
0.021771203
0.028071951
0.023585966
0.024368767
-0.075078899
-0.074210029
-0.073378385
-0.073250971
-0.072708249
-0.071086499
-0.068408293
-0.064810243
-0.060284834
-0.054779854
-0.04832262
-0.041033322
-0.033084326
-0.024669413
-0.015989991
-0.0072447492
0.0013793904
0.0097082033
0.017569369
0.024771673
0.031072138
0.03615982
0.039640312
0.041043526
0.039818442
0.035385596
0.027374889
0.01633401
0.0048178555
-0.0030536729
-0.0046457845
-0.00087724557
0.0051290887
0.010988345
0.016023414
0.020060883
0.022881595
0.024894811
0.026120759
0.023757614
0.013652857
-0.0033987641
-0.018102356
-0.019948469
-0.0071574612
0.010999638
0.023200449
0.028803654
0.02346936
0.025246146
-0.063251563
-0.062420204
-0.061654247
-0.061477625
-0.060947034
-0.0595089
-0.057184907
-0.054095571
-0.050239979
-0.045572318
-0.040102945
-0.033912633
-0.027124168
-0.019881586
-0.012342442
-0.0046718973
0.0029639357
0.010400176
0.01746731
0.023976357
0.029687049
0.034409011
0.037738203
0.039314331
0.038722605
0.0355822
0.029713056
0.021529509
0.012770719
0.0062814932
0.0041136769
0.0060469341
0.010154948
0.014686957
0.018931557
0.022617248
0.025436447
0.027343367
0.028264495
0.026136832
0.017887146
0.0039728182
-0.0085427111
-0.010993168
-0.001275052
0.0135548
0.023898237
0.028691073
0.022642466
0.025404367
-0.052055561
-0.051505204
-0.050912073
-0.050760336
-0.050297351
-0.049071986
-0.047104576
-0.044497987
-0.041254303
-0.037334321
-0.032739189
-0.02752358
-0.021775335
-0.015601498
-0.0091247214
-0.00248058
0.0041868013
0.010727133
0.016981673
0.022775215
0.027903152
0.032167058
0.035265918
0.036909508
0.036798187
0.034676445
0.030440408
0.02443425
0.017919366
0.012795978
0.010560435
0.011377527
0.014145062
0.017616459
0.021135917
0.024388301
0.027054114
0.028861011
0.029561196
0.027627103
0.020892881
0.0096441442
-0.00082542611
-0.0035400729
0.0036200843
0.015402249
0.023903553
0.027811138
0.021224896
0.024742085
-0.041904437
-0.04158302
-0.041159363
-0.041059913
-0.040689633
-0.039683438
-0.038058363
-0.035899703
-0.033210388
-0.029957224
-0.02613641
-0.021785029
-0.016966173
-0.011759486
-0.0062601158
-0.00057815439
0.005164
0.010833818
0.016288215
0.02136978
0.025901644
0.029699201
0.032532335
0.034170845
0.034393313
0.033028411
0.03004821
0.02576273
0.021042896
0.017137869
0.015142276
0.015356628
0.017198718
0.019829355
0.02269747
0.025478183
0.027863039
0.029528572
0.030070563
0.02833376
0.022770201
0.013645248
0.0050381549
0.002399812
0.0075214736
0.01657389
0.023302519
0.026299645
0.019411661
0.023230963
-0.033016694
-0.032714091
-0.032384638
-0.032330264
-0.032055465
-0.031259346
-0.029951612
-0.028200328
-0.026007704
-0.023345615
-0.020207756
-0.01661927
-0.012625657
-0.0082862543
-0.0036745689
0.0011210301
0.005998682
0.010844763
0.015534366
0.019930024
0.02388017
0.027224239
0.029781617
0.031373307
0.031838616
0.031070869
0.029083164
0.026121713
0.022778607
0.019901079
0.018280234
0.018212844
0.019430249
0.02140214
0.023694811
0.026000725
0.028026161
0.029449196
0.029841054
0.028289817
0.023697167
0.016369133
0.0094456306
0.0070259413
0.010478884
0.017139703
0.022219169
0.024321526
0.017422384
0.020966626
-0.02468999
-0.024589806
-0.024435071
-0.024474219
-0.024312153
-0.023717278
-0.022699345
-0.021312872
-0.019559961
-0.017417292
-0.014877649
-0.011958016
-0.0086912473
-0.0051214854
-0.001305169
0.0026876566
0.006773873
0.010858561
0.014835755
0.018588559
0.02198913
0.024905684
0.027192667
0.028713934
0.02935426
0.029047397
0.027821413
0.025865245
0.023585195
0.021552008
0.020320488
0.020155398
0.020963202
0.022425039
0.024216877
0.026067785
0.02770879
0.028829353
0.029030508
0.027631662
0.023911507
0.018174548
0.012703741
0.0104822
0.012556621
0.017202126
0.02080377
0.022066382
0.015421394
0.01819285
-0.017359471
-0.017380789
-0.017353007
-0.017468567
-0.017408444
-0.016992142
-0.016229782
-0.015163214
-0.013793622
-0.012102056
-0.010081268
-0.0077425254
-0.0051094422
-0.0022146781
0.00089883488
0.0041763649
0.0075514232
0.010946626
0.014274601
0.017438982
0.020335287
0.022852778
0.024879486
0.026312067
0.027067525
0.027103522
0.026449942
0.025248799
0.02377754
0.02241052
0.021534603
0.021373086
0.021919282
0.022990647
0.024356751
0.025791973
0.027055891
0.027865811
0.027879782
0.026620038
0.02364297
0.019207344
0.014905218
0.012864127
0.013871918
0.016887173
0.019204878
0.019704208
0.013495123
0.015237351
-0.01096043
-0.011056129
-0.011108766
-0.011273149
-0.011295634
-0.011028711
-0.010482144
-0.0096886445
-0.0086470283
-0.0073413654
-0.0057648955
-0.0039247633
-0.0018376108
0.00047270253
0.0029739502
0.0056240837
0.0083710171
0.011153217
0.01390051
0.016535261
0.018973831
0.021125203
0.022904733
0.024233598
0.025051227
0.025329489
0.025093358
0.024443489
0.023568417
0.022710876
0.022140828
0.022031163
0.022412583
0.02318829
0.024200647
0.025269601
0.026190708
0.026722263
0.026585909
0.025451948
0.023055707
0.019612114
0.016208759
0.014255727
0.014580296
0.016314271
0.017549721
0.017371986
0.011679198
0.012392527
-0.0053644827
-0.0055200451
-0.0056313068
-0.0058262426
-0.0059105337
-0.005766488
-0.0053984577
-0.0048320539
-0.0040656393
-0.0030849823
-0.0018835128
-0.00046558006
0.0011573936
0.0029684069
0.0049437582
0.0070517946
0.0092526047
0.011498386
0.013734052
0.015898212
0.017924771
0.019744208
0.021290828
0.022503329
0.023336747
0.023770945
0.023823393
0.023562064
0.023108884
0.022636044
0.022311275
0.022266633
0.022544892
0.023099101
0.023824641
0.024583628
0.02521014
0.025508262
0.02525883
0.024234992
0.022285469
0.01958518
0.016864711
0.01510406
0.01485314
0.015582272
0.015931755
0.015178092
0.010017478
0.0098475346
-0.00047852152
-0.00067256571
-0.00083168924
-0.0010532051
-0.0011867993
-0.0011411594
-0.00091907337
-0.00053922238
3.8057178e-07
0.00071158692
0.0016007751
0.0026659272
0.0038995024
0.0052897191
0.0068196162
0.0084659361
0.010198801
0.011981952
0.013773202
0.015525145
0.017186846
0.018705633
0.020031971
0.021116869
0.021926587
0.022445553
0.022683489
0.022683793
0.02252487
0.022320288
0.02217896
0.022193877
0.022405604
0.022794418
0.023292585
0.023798219
0.02418145
0.02428981
0.023958655
0.023031424
0.021423989
0.01927205
0.017059575
0.015445011
0.014789444
0.014762853
0.014416498
0.013204731
0.0085642843
0.0076933874
0.0037614056
0.0035412862
0.0033498037
0.0031138906
0.0029393427
0.002904452
0.0030090472
0.0032385036
0.0035941458
0.0040857082
0.0047191396
0.0054939978
0.0064056427
0.0074462605
0.0086041077
0.009862588
0.011199944
0.012589382
0.013999421
0.015394406
0.016735978
0.017985258
0.019102186
0.020051086
0.020805025
0.02135119
0.021692993
0.021855918
0.021888707
0.021861248
0.021846149
0.021905095
0.02207032
0.02233514
0.02265628
0.022960568
0.023150223
0.02311095
0.022721248
0.021874361
0.020523913
0.018769627
0.016925239
0.01541369
0.014467907
0.013905993
0.013040709
0.011493548
0.0073346985
0.0059537794
0.0074202326
0.0071827525
0.0069661384
0.0067136946
0.0065172145
0.0064248527
0.0064389894
0.0065499938
0.0067588304
0.0070737629
0.0075003403
0.008039265
0.0086880753
0.0094419223
0.010293014
0.011229893
0.012237165
0.013295553
0.014382152
0.01547081
0.016532991
0.017539699
0.018459914
0.019270093
0.019945542
0.020474502
0.020856652
0.021105407
0.021249
0.021329153
0.021391213
0.02147465
0.021602283
0.021772371
0.021957097
0.022105072
0.022145164
0.021992767
0.02156137
0.020778225
0.01961657
0.018144988
0.016561195
0.015128645
0.013996233
0.013049349
0.011817733
0.010044127
0.0063121318
0.0046046971
0.010562473
0.01031734
0.010087975
0.0098325016
0.0096172469
0.0094811572
0.0094233198
0.0094385984
0.009530572
0.0097054835
0.0099674984
0.010317706
0.010755098
0.01127698
0.011878485
0.012552031
0.013287091
0.014070193
0.014885065
0.015712932
0.016532855
0.017322669
0.018062118
0.018730067
0.019312051
0.019792259
0.020166965
0.020445126
0.020639671
0.020773465
0.020872661
0.020961218
0.021053489
0.021148597
0.021228064
0.021256125
0.02118194
0.02094463
0.020483238
0.019747872
0.0187213
0.017447208
0.016045672
0.014674698
0.013423244
0.012218623
0.01074531
0.0088370558
0.0054746741
0.003590774
0.013245751
0.012998097
0.012761418
0.012504122
0.012275578
0.012106336
0.011997097
0.011942724
0.011944408
0.012009604
0.012142417
0.012343777
0.012613367
0.01295
0.013350943
0.013811417
0.014324509
0.01488112
0.015470027
0.016078069
0.016690485
0.017291467
0.017864965
0.018395714
0.018869325
0.019278439
0.019617489
0.01988352
0.020084165
0.020229712
0.020334209
0.020410467
0.020465807
0.020498475
0.020495296
0.02043118
0.020270225
0.019969223
0.019485324
0.018783555
0.017850973
0.016712439
0.015437016
0.014115127
0.012795774
0.011431531
0.0098130015
0.0078430808
0.0047969443
0.0028446013
0.015519967
0.015273195
0.015033468
0.014777379
0.014541702
0.014349456
0.014201381
0.014094293
0.014030645
0.014013028
0.014045141
0.01412991
0.014268103
0.014458898
0.014700749
0.014990943
0.015325136
0.015697417
0.016100306
0.016524812
0.016960637
0.017396552
0.017820894
0.018222254
0.018590121
0.018915495
0.019192662
0.019418624
0.019593824
0.019721791
0.019808031
0.019857695
0.019873026
0.019850917
0.019780988
0.019644929
0.019417073
0.019067775
0.018565818
0.017885704
0.017016431
0.01596949
0.01478144
0.013500511
0.01215003
0.010698182
0.009007487
0.0070303323
0.0042531097
0.0023029216
0.017435451
0.017191919
0.016952436
0.016699969
0.016461562
0.016254235
0.016078697
0.015932781
0.015818053
0.015738189
0.015695736
0.015691473
0.015727088
0.015803654
0.015920478
0.016075811
0.016267186
0.016490875
0.016742018
0.017014654
0.017301781
0.017595549
0.01788757
0.018169294
0.018432447
0.018669592
0.018874726
0.019043502
0.019173507
0.019263992
0.01931528
0.019327635
0.019299701
0.019226965
0.019100266
0.0189073
0.018627514
0.018239972
0.017721949
0.017054173
0.016226181
0.015240549
0.01411372
0.012868361
0.011512399
0.010024124
0.0083138076
0.0063671646
0.0038180211
0.0019122019
0.019031165
0.018792301
0.01855518
0.018307752
0.018069532
0.017852859
0.017658404
0.017484797
0.01733337
0.017206929
0.017107892
0.01703798
0.016997498
0.01698671
0.017005666
0.017054986
0.017133565
0.017239034
0.017368075
0.017516794
0.017680475
0.017853675
0.018030442
0.018204492
0.018369458
0.018519242
0.018648292
0.018751767
0.018825713
0.01886702
0.018873138
0.018841446
0.018768406
0.018648581
0.018473748
0.018231101
0.017908788
0.017489786
0.016956598
0.016294029
0.015491795
0.014546875
0.013463746
0.012250277
0.010905869
0.0094154416
0.0077202646
0.0058273213
0.0034708587
0.0016312526
0.020346603
0.020112507
0.019878539
0.019636442
0.019399905
0.019177653
0.018970308
0.018777092
0.01859912
0.018438559
0.018297293
0.018176616
0.018077404
0.018000454
0.017946694
0.017915459
0.017906079
0.017917701
0.017949196
0.017997766
0.018060047
0.018132438
0.018210833
0.018290701
0.018367119
0.018435097
0.018489829
0.018526535
0.018540626
0.018527802
0.018483991
0.018404967
0.018285968
0.018121472
0.017902694
0.01761992
0.017262343
0.016816729
0.016269264
0.015607255
0.014820572
0.013902989
0.012852276
0.011668185
0.010345785
0.0088744944
0.0072153813
0.0053881034
0.0031937622
0.0014289875
0.021410597
0.021181764
0.020951818
0.020715569
0.020482228
0.020257697
0.020042543
0.019836436
0.01964032
0.019455851
0.019284519
0.019127448
0.018985569
0.018859687
0.018750367
0.018657806
0.018581881
0.018522129
0.018477323
0.018446336
0.018427461
0.018418221
0.018415602
0.018416134
0.018415989
0.018411008
0.01839752
0.018370709
0.018326117
0.018259073
0.018164989
0.018038844
0.017875067
0.017666822
0.017407745
0.017089261
0.016701005
0.016231838
0.015670363
0.015005464
0.014227205
0.013327719
0.012301275
0.011143472
0.009847515
0.0084059363
0.0067922253
0.0050329379
0.0029729079
0.0012821976
0.0222428
0.022017758
0.021790962
0.021559319
0.021328645
0.021102753
0.02088219
0.020666954
0.020457842
0.020256105
0.020062905
0.019879186
0.019705772
0.019543397
0.019392659
0.019253956
0.019127443
0.019012973
0.018910103
0.018818133
0.018735993
0.018662125
0.018594488
0.018530595
0.018467608
0.018402283
0.018330357
0.018248214
0.018151532
0.018035799
0.017896102
0.017727322
0.017523757
0.017279152
0.016986614
0.016638054
0.016224345
0.015735776
0.015162267
0.01449369
0.013720431
0.012833949
0.011826877
0.010692916
0.0094247154
0.0080169161
0.0064505805
0.0047555779
0.0028044548
0.0011801724
0.022881144
0.022660367
0.022437257
0.022210534
0.021983506
0.021758379
0.021535662
0.021315611
0.021098921
0.02088654
0.020679374
0.020478221
0.020283812
0.020096825
0.019917848
0.019747333
0.019585559
0.019432593
0.019288259
0.019152091
0.019023291
0.018900712
0.018782831
0.018667743
0.018553163
0.018436414
0.018314372
0.018183741
0.018040929
0.017881913
0.017701947
0.017495666
0.017257278
0.016980503
0.016658428
0.016283464
0.015847348
0.015341228
0.014755816
0.014081648
0.013309445
0.012430494
0.011436807
0.01032138
0.0090769311
0.0076995088
0.006174744
0.0045337062
0.0026671656
0.001100937
0.02327895
0.023059778
0.02283832
0.022613994
0.02238844
0.022162941
0.021938042
0.021714158
0.0214919
0.021272015
0.021055244
0.02084229
0.020633819
0.020430461
0.020232787
0.020041276
0.019856282
0.019678004
0.019506452
0.019341408
0.019182387
0.019028601
0.01887892
0.01873184
0.018585447
0.018437401
0.018284929
0.018124809
0.017953377
0.017766591
0.01756007
0.017329005
0.017067781
0.016770167
0.016429427
0.01603828
0.015588853
0.015072721
0.014481048
0.013804785
0.013034918
0.012162768
0.011180169
0.010079924
0.0088549438
0.0075020803
0.0060093428
0.0044078653
0.0025969526
0.0010643907
0.023552195
0.023335293
0.023116079
0.02289454
0.022671295
0.022447032
0.022222298
0.021997602
0.021773502
0.021550611
0.021329558
0.02111096
0.020895417
0.020683494
0.020475704
0.020272483
0.020074165
0.019880949
0.019692873
0.019509777
0.019331277
0.019156724
0.018985175
0.01881536
0.018645649
0.018474028
0.018298073
0.018114923