/*--------------------------------*- C++ -*----------------------------------*\
| =========                 |                                                 |
| \\      /  F ield         | OpenFOAM: The Open Source CFD Toolbox           |
|  \\    /   O peration     | Version:  2406                                  |
|   \\  /    A nd           | Website:  www.openfoam.com                      |
|    \\/     M anipulation  |                                                 |
\*---------------------------------------------------------------------------*/
FoamFile
{
    version     2.0;
    format      ascii;
    arch        "LSB;label=32;scalar=64";
    class       surfaceScalarField;
    location    "30";
    object      phi;
}
// * * * * * * * * * * * * * * * * * * * * * * * * * * * * * * * * * * * * * //

dimensions      [0 3 -1 0 0 0 0];

oriented        oriented;

internalField   nonuniform List<scalar> 
18180
(
-0.00052305258
0.0015542533
-0.0010312005
-0.0011207488
0.0027366303
-0.0021389337
-0.0010230526
0.0023982743
-0.0024959702
0.00047096714
0.00053169145
-0.0020257109
0.0040385485
-0.0030424208
-0.00052516016
0.010336132
-0.0085511936
0.0022536107
0.019882554
-0.016119678
0.0065732554
0.032915306
-0.025640347
0.012607595
0.049247638
-0.036708909
0.020376577
0.068234643
-0.048676855
0.029689851
0.08886807
-0.060792417
0.04015899
0.10996802
-0.072368166
0.051268219
0.13040331
-0.082910402
0.062475113
0.14927668
-0.092178818
0.073305441
0.16603459
-0.10017699
0.083419077
0.18048926
-0.10709355
0.092638876
0.19276473
-0.11322048
0.10094502
0.20319191
-0.11887141
0.10844422
0.21218328
-0.1243244
0.11533303
-0.12975145
0.12176732
0.22016742
-0.0001973588
0.0017516123
4.3779601e-05
0.002495492
0.0015072931
0.00093476103
0.0049677114
-0.0029287266
0.011153862
-0.0092285713
0.020610979
-0.01800831
0.033503733
-0.029012432
0.049463026
-0.04159964
0.067596105
-0.054841988
0.086674473
-0.067755223
0.10542058
-0.079538522
0.12277973
-0.089727313
0.1380944
-0.098225073
0.15114985
-0.10523427
0.16210622
-0.11113336
0.17136148
-0.1163488
0.17939802
-0.12125703
0.18665793
-0.12613132
0.19346669
-0.13113316
-0.13631737
0.20003261
0.000137024
0.0016145885
0.0012874548
0.0013450614
0.0042833185
-0.0020611025
0.0099257708
-0.0085711788
0.018820073
-0.018122873
0.031119211
-0.030307448
0.046334123
-0.044227343
0.063378317
-0.058643834
0.080851851
-0.072315521
0.097422087
-0.084325459
0.1121367
-0.094253136
0.12456972
-0.10216033
0.13478898
-0.10844434
0.14319912
-0.11364441
0.15034168
-0.11827592
0.15672546
-0.12273259
0.16272778
-0.12725935
0.16857034
-0.13197387
0.17434557
-0.13690839
-0.14204189
0.18007009
0.00044545431
0.0011691343
0.0025535038
-0.00076298787
0.007194085
-0.0067016835
0.015064698
-0.016441791
0.026376054
-0.029434229
0.040594612
-0.044526006
0.056491545
-0.060124277
0.072515167
-0.074667456
0.087273251
-0.087073604
0.099890656
-0.096942864
0.11012398
-0.10448646
0.11824937
-0.11028572
0.12482551
-0.11502048
0.13045194
-0.11927083
0.13560677
-0.12343075
0.14058795
-0.12771377
0.14553347
-0.13220487
0.15047701
-0.13691741
0.15540213
-0.1418335
-0.14692251
0.16028275
0.0007822864
0.00038684804
0.0039231043
-0.0039038056
0.010256511
-0.01303509
0.020137501
-0.026322781
0.033092855
-0.042389583
0.047815882
-0.059249033
0.062604179
-0.074912574
0.075959472
-0.088022749
0.087015232
-0.098129364
0.095636135
-0.10556377
0.10223441
-0.11108473
0.10746095
-0.11551227
0.11193286
-0.11949239
0.11608656
-0.12342453
0.12015737
-0.12750156
0.12423264
-0.13178905
0.12832057
-0.1362928
0.13240107
-0.14099791
0.13645165
-0.14588409
-0.15093158
0.14046072
0.0011756691
-0.00078882092
0.0054216503
-0.0081497866
0.013336899
-0.020950339
0.024656236
-0.037642118
0.038102123
-0.055835469
0.051828885
-0.072975795
0.064157834
-0.087241523
0.074126737
-0.097991651
0.081615017
-0.10561764
0.087105881
-0.11105463
0.091307596
-0.11528644
0.094846761
-0.11905143
0.098130969
-0.12277659
0.10135746
-0.12665102
0.10458832
-0.13073242
0.10782459
-0.13502531
0.1110507
-0.13951891
0.11425185
-0.14419906
0.11741816
-0.1490504
-0.15406313
0.1205497
0.0016213361
-0.0024101569
0.0069597001
-0.01348815
0.016111678
-0.030102316
0.028009091
-0.049539532
0.04072226
-0.068548638
0.052316791
-0.084570325
0.061600438
-0.096525171
0.068350135
-0.10474135
0.073053678
-0.11032119
0.076457981
-0.11445893
0.079210068
-0.11803853
0.081711883
-0.12155325
0.084145895
-0.12521061
0.086565558
-0.12907068
0.088972889
-0.13313975
0.091358765
-0.13741119
0.093714969
-0.14187512
0.096034941
-0.14651903
0.098315229
-0.15133068
-0.15630913
0.10056123
0.002086231
-0.0044963877
0.0083669172
-0.019768836
0.018195384
-0.039930782
0.029722274
-0.061066422
0.040731196
-0.07955756
0.04964895
-0.09348808
0.055996076
-0.1028723
0.060177963
-0.10892323
0.062961986
-0.11310521
0.065035129
-0.11653208
0.066821605
-0.11982501
0.068510428
-0.12324207
0.070157644
-0.12685782
0.071769465
-0.1306825
0.073342389
-0.13471267
0.074873592
-0.13894239
0.076360103
-0.14336163
0.077798248
-0.14795717
0.079187857
-0.15272029
-0.15765847
0.0805372
0.0025188225
-0.0070152098
0.0094514744
-0.026701488
0.019288009
-0.049767317
0.029624797
-0.071403209
0.038379711
-0.088312474
0.044617582
-0.09972595
0.048525523
-0.10678024
0.050851353
-0.11124906
0.052340324
-0.11459418
0.053470267
-0.11766202
0.054458766
-0.12081351
0.05537412
-0.12415742
0.056228684
-0.12771239
0.057023105
-0.13147693
0.057758308
-0.13544788
0.058434914
-0.13961899
0.059051295
-0.14397801
0.05960494
-0.14851082
0.060097988
-0.15321334
-0.15809978
0.0605393
0.0028738587
-0.0098890682
0.010072747
-0.033900376
0.019267303
-0.058961873
0.027850011
-0.079985917
0.034207264
-0.094669727
0.038092772
-0.10361146
0.040137301
-0.10882477
0.041144
-0.11225576
0.041677149
-0.11512733
0.042009215
-0.11799409
0.042233001
-0.12103729
0.042369671
-0.12429409
0.042423566
-0.12776628
0.042397561
-0.13145092
0.042294778
-0.13534509
0.042116687
-0.1394409
0.041862061
-0.14372338
0.041529205
-0.14817796
0.041121187
-0.15280532
0.040644753
-0.15762335
-0.00088342919
-0.0070654198
0.0079488492
-0.0029884164
-0.01276998
0.014874967
-0.0059433998
-0.014027741
0.016982724
-0.0095137509
-0.013018291
0.016588642
-0.013545966
-0.010976244
0.01500846
-0.017920655
-0.0083542973
0.012728987
-0.022529197
-0.0051505004
0.0097590423
-0.027292262
-0.0011535469
0.0059166127
-0.031979704
0.003666312
0.0010211303
-0.036592942
0.0095540877
-0.0049408496
-0.040933592
0.016528963
-0.012188312
-0.044845135
0.024562276
-0.020650733
-0.048148868
0.033536913
-0.03023318
-0.050640523
0.043234873
-0.040743217
-0.052085937
0.053325584
-0.05188017
-0.052213406
0.063358398
-0.063230928
-0.050692427
0.072763368
-0.074284346
-0.04710225
0.080861115
-0.084451292
-0.040891436
0.086878641
-0.093089454
0.089988892
-0.031359494
-0.099520834
-0.0010771556
-0.0059882641
-0.0034007064
-0.010446429
-0.0065069789
-0.010921468
-0.010179424
-0.0093458452
-0.014302149
-0.0068535196
-0.018767715
-0.0038887306
-0.023444816
-0.00047339891
-0.028129161
0.0035307976
-0.032716744
0.0082538954
-0.036968005
0.013805349
-0.040645495
0.020206453
-0.043480183
0.027396965
-0.045167668
0.035224398
-0.045364004
0.04343121
-0.04368199
0.05164357
-0.039689785
0.059366193
-0.032920722
0.065994305
-0.02287029
0.070810683
-0.0090433504
0.073051703
0.071966634
0.0089789077
-0.0010931041
-0.0048951598
-0.0033091795
-0.0082303531
-0.0061548203
-0.0080758269
-0.0094271607
-0.0060735046
-0.013031248
-0.0032494321
-0.016859841
-6.0136925e-05
-0.020749751
0.0034165113
-0.02449112
0.0072721663
-0.027851692
0.011614468
-0.030548873
0.01650253
-0.03226322
0.0219208
-0.032637127
0.027770872
-0.031276741
0.033864012
-0.027760146
0.039914615
-0.02164745
0.045530874
-0.012495437
0.05021418
0.00010046582
0.053398403
0.016455459
0.05445569
0.036702848
0.052804314
0.047943582
0.060725901
-0.00098966742
-0.0039054923
-0.002897532
-0.0063224883
-0.0052268656
-0.0057464931
-0.0077640344
-0.0035363356
-0.010413488
-0.00059997785
-0.013067513
0.0025938875
-0.015548961
0.0058979594
-0.017616911
0.0093401172
-0.018982331
0.012979887
-0.019316901
0.016837101
-0.018261344
0.020865243
-0.015429152
0.024938681
-0.010416134
0.028850993
-0.0028172728
0.032315754
0.0077459183
0.034967683
0.021580532
0.036379567
0.038869503
0.036109432
0.0596111
0.033714094
0.083556324
0.02885909
0.021358714
0.11014119
-0.00085671967
-0.0030487724
-0.0024291092
-0.0047500985
-0.0042107597
-0.0039648424
-0.005946615
-0.00180048
-0.0075136335
0.00096704086
-0.0087936184
0.0038738727
-0.0096163565
0.0067206977
-0.0097376321
0.0094613931
-0.0088588474
0.012101103
-0.0066494273
0.014627681
-0.0027562416
0.016972057
0.0031769004
0.019005539
0.011488746
0.020539148
0.02247005
0.02133445
0.036336659
0.021101074
0.053186589
0.019529637
0.072940793
0.016355228
0.095329914
0.011324974
0.11997538
0.004213628
-0.0054027379
0.14673683
-0.00077645002
-0.0022723222
-0.002142148
-0.0033844004
-0.0035575688
-0.0025494214
-0.004706783
-0.00065126553
-0.0054094476
0.0016697057
-0.005532636
0.0039970614
-0.0049156938
0.0061037557
-0.0033438776
0.0078895773
-0.00055440715
0.0093116322
0.0037457986
0.010327476
0.0098515255
0.010866331
0.018039968
0.010817097
0.028537183
0.010041933
0.041495408
0.0083762248
0.056985056
0.0056114259
0.075009932
0.0015047618
0.095607798
-0.0042426376
0.11888801
-0.011955237
0.14498146
-0.021879824
-0.034173669
0.17375239
-0.00078671194
-0.0014856101
-0.0021416602
-0.0020294519
-0.0034713936
-0.0012196878
-0.0043953129
0.00027265403
-0.0046771024
0.0019514954
-0.0041503939
0.0034703532
-0.0026555524
0.0046089143
-3.7497761e-06
0.005237775
0.0040306894
0.0052771932
0.0096952308
0.0046629347
0.01724346
0.0033181015
0.026931233
0.0011293241
0.039040115
-0.0020669481
0.053898953
-0.0064826135
0.071842859
-0.01233248
0.093134507
-0.019786886
0.11783863
-0.028946764
0.14563677
-0.039753374
0.17578257
-0.052025618
-0.065167864
0.20677676
-0.00085538361
-0.00063022631
-0.0023219879
-0.00056284735
-0.0037435616
0.000201886
-0.0046886804
0.0012177732
-0.0048636081
0.0021264233
-0.0040433224
0.0026500678
-0.0020105723
0.0025761643
0.0014667021
0.0017605009
0.0066911423
5.2753189e-05
0.014041387
-0.0026873101
0.023962147
-0.0066026584
0.036914539
-0.011823067
0.053274731
-0.01842714
0.073201216
-0.026409098
0.096536071
-0.035667336
0.12276739
-0.046018203
0.15102356
-0.05720294
0.1801617
-0.068891514
0.20888269
-0.080746607
-0.092080519
0.23579535
-0.00088556807
0.00025534198
-0.0023756934
0.00092727823
-0.0037641356
0.0015903284
-0.0045573344
0.0020109723
-0.0043685299
0.0019376191
-0.0028446437
0.0011261818
0.00041348442
-0.00068196352
0.0058336003
-0.0036596147
0.013932996
-0.0080466425
0.025177073
-0.013931387
0.039876066
-0.021301651
0.058065288
-0.030012289
0.079437072
-0.039798925
0.10334178
-0.050313809
0.12885188
-0.061177432
0.15486468
-0.072031007
0.18023634
-0.082574599
0.20393352
-0.092588686
0.22514874
-0.10196183
-0.11047144
0.24353966
-0.00077585838
-0.0019875137
-0.0028931554
-0.0029078938
-0.0014954349
0.0018843579
0.0077756498
0.016723631
0.029053565
0.044812029
0.063669368
0.084925299
0.10760149
0.13059312
0.15283476
0.17344263
0.19181305
0.20766859
0.2210398
0.23233568
-0.013035914
0.11933561
-0.13765919
0.010464884
0.11018271
-0.1336835
0.037438251
0.090212386
-0.11718575
0.065085354
0.060860817
-0.088507919
0.090858794
0.024160422
-0.049933863
0.11355848
-0.018544624
-0.0041550664
0.13305521
-0.065891279
0.046394558
0.14923665
-0.1143489
0.09816745
0.16117511
-0.15652317
0.14458471
0.16790296
-0.18508904
0.17836119
0.16952671
-0.19793901
0.19631526
0.16736595
-0.19908996
0.20125072
0.16296995
-0.19496486
0.19936086
0.15652491
-0.19140596
0.197851
0.14725182
-0.19400402
0.20327711
0.13756258
-0.20194336
0.21163261
0.13410392
-0.19486663
0.19832529
0.14078822
-0.14347826
0.13679396
0.1553436
-0.044747509
0.03019213
0.17261246
0.072146559
-0.089415426
0.18726049
0.17069301
-0.18534104
0.19596487
0.22975717
-0.23846154
0.19867384
0.25152643
-0.2542354
0.19719963
0.25403815
-0.25256393
0.19289231
0.25840099
-0.25409367
0.18693
0.27304208
-0.26707977
0.18175901
0.27637255
-0.27120157
0.17970654
0.22422929
-0.22217682
0.18111468
0.094629478
-0.096037616
0.18494425
-0.079731451
0.075901874
0.18935638
-0.23280679
0.22839466
0.19168935
-0.31704453
0.31471156
0.18955842
-0.3387598
0.34089073
0.18333111
-0.33719949
0.3434268
0.17687889
-0.32131545
0.32776768
0.17450907
-0.24703282
0.24940263
0.17697202
-0.081560552
0.079097607
0.1814705
0.1333476
-0.13784608
0.18415002
0.31439484
-0.31707437
0.1827878
0.41151219
-0.41014997
0.17928502
0.41880415
-0.41530137
0.17794774
0.32402164
-0.32268436
0.17947366
0.11678012
-0.11830604
0.18016736
-0.14715192
0.14645822
0.17688051
-0.36385353
0.36714038
0.17103644
-0.45344368
0.45928775
0.16688684
-0.37238472
0.37653432
0.16519947
-0.12977706
0.13146443
0.16156916
0.20661031
-0.20298
0.34183076
-0.33590643
0.03286817
0.095446351
0.058935112
0.084115762
0.085126512
0.064020987
0.1092056
0.036781733
0.1298373
0.0035287204
0.14674738
-0.035454711
0.16034849
-0.079492384
0.17025516
-0.12425557
0.17545794
-0.16172594
0.1756176
-0.18524871
0.17172484
-0.19404624
0.1654872
-0.19285232
0.15829968
-0.18777734
0.15008767
-0.18319395
0.13920894
-0.18312529
0.12657638
-0.18931081
0.11945593
-0.18774618
0.1247827
-0.14880504
0.14131818
-0.061282985
0.16273288
0.050731864
0.1822764
0.15114949
0.1955491
0.21648447
0.20184605
0.24522947
0.20301022
0.25287398
0.20112113
0.26029007
0.19788591
0.27627729
0.19496536
0.2792931
0.19310765
0.226087
0.19192903
0.095808105
0.19126051
-0.079062939
0.19099267
-0.23253894
0.18973527
-0.31578714
0.18521401
-0.33423854
0.17711148
-0.32909695
0.1690944
-0.31329837
0.16638225
-0.24432068
0.17052476
-0.085703056
0.17817411
0.12569824
0.18417896
0.30839
0.18554305
0.41014811
0.1839938
0.42035339
0.18341618
0.32459926
0.18413159
0.11606471
0.18292155
-0.14594189
0.1774752
-0.35840718
0.16972345
-0.44569192
0.16437054
-0.36703182
0.16260415
-0.12801067
0.15989892
0.20931553
0.3469173
0.084475479
0.071696772
0.10801195
0.060579288
0.12967288
0.04236006
0.14815514
0.018299475
0.16308566
-0.011401804
0.17484448
-0.047213524
0.18339503
-0.08804294
0.1876292
-0.12848973
0.18665852
-0.16075527
0.18107085
-0.17966103
0.1727161
-0.1856915
0.16345763
-0.18359385
0.15430855
-0.17862826
0.14501319
-0.17389859
0.13360457
-0.17171667
0.11926369
-0.17496992
0.10826319
-0.17674569
0.11046413
-0.15100598
0.1273705
-0.078189353
0.15198376
0.026118597
0.17599253
0.12714073
0.19379653
0.19868047
0.20389826
0.23512774
0.20799783
0.24877441
0.20876807
0.25951984
0.20834653
0.27669883
0.20763761
0.28000202
0.20594572
0.2277789
0.20225237
0.099501455
0.19725066
-0.074061227
0.19246901
-0.22775729
0.18777854
-0.31109667
0.18112367
-0.32758367
0.17148333
-0.31945661
0.16208384
-0.30389889
0.15889777
-0.24113461
0.16440579
-0.09121107
0.17494243
0.11516159
0.18417696
0.29915547
0.1883224
0.40600267
0.18877382
0.41990198
0.1889099
0.32446318
0.18877785
0.11619676
0.18573429
-0.14289833
0.17828383
-0.35095672
0.16876207
-0.43617016
0.16224973
-0.36051948
0.16041724
-0.12617817
0.15870879
0.21102398
0.35107788
0.1304413
0.051396661
0.14925716
0.041763429
0.16556623
0.026050992
0.17891125
0.0049544587
0.18957243
-0.022062992
0.19762126
-0.055262356
0.20189228
-0.092313956
0.20088537
-0.12748282
0.1944374
-0.1543073
0.18420837
-0.169432
0.17261219
-0.17409532
0.16138187
-0.17236353
0.15104458
-0.16829098
0.14120036
-0.16405437
0.13011879
-0.1606351
0.11570399
-0.16055512
0.10165641
-0.16269811
0.099145612
-0.14849517
0.11404776
-0.093091505
0.14034255
-0.00017619044
0.16814148
0.099341803
0.19031635
0.1765056
0.20436555
0.22107854
0.2116367
0.24150326
0.21519069
0.25596585
0.21752195
0.27436757
0.21891351
0.27861046
0.2174426
0.22924981
0.21155033
0.10539372
0.20265375
-0.065164648
0.19372733
-0.21883087
0.18585447
-0.30322381
0.17734292
-0.31907211
0.16653747
-0.30865116
0.15600668
-0.29336811
0.15223257
-0.23736049
0.15870829
-0.097686795
0.17175372
0.10211616
0.18404402
0.28686517
0.19097497
0.39907173
0.19344358
0.41743336
0.19425924
0.32364752
0.19329799
0.11715801
0.18854705
-0.13814739
0.17928447
-0.34169414
0.1681588
-0.42504449
0.16054509
-0.35290577
0.15865067
-0.12428375
0.15800167
0.21167297
0.3542174
0.16321574
0.034917749
0.17825229
0.026726878
0.191236
0.013067286
0.20201636
-0.0058259011
0.210453
-0.030499637
0.2155181
-0.060327449
0.21549278
-0.092288641
0.20948701
-0.12147704
0.19849719
-0.14331748
0.1849707
-0.15590551
0.17138952
-0.16051414
0.1591203
-0.16009431
0.1482598
-0.15743048
0.13827665
-0.15407122
0.12796919
-0.15032764
0.11493172
-0.14751765
0.099750122
-0.14751651
0.092083994
-0.14082905
0.1023078
-0.10331531
0.1280224
-0.02589079
0.15852033
0.068843876
0.18472591
0.15030001
0.20278165
0.2030228
0.21340869
0.23087622
0.21979304
0.2495815
0.22471355
0.26944706
0.22804703
0.27527698
0.2269396
0.23035724
0.21934378
0.11298954
0.20718341
-0.053004274
0.19464604
-0.2062935
0.18392469
-0.29250247
0.17383747
-0.30898489
0.16224558
-0.29705927
0.15089088
-0.28201341
0.14645201
-0.23292162
0.15348803
-0.10472282
0.16856991
0.087034285
0.18366519
0.27176989
0.19333099
0.38940592
0.19780841
0.41295594
0.1992939
0.32216203
0.19757514
0.11887678
0.19128932
-0.13186158
0.1804371
-0.33084192
0.16790135
-0.41250874
0.15926342
-0.34426784
0.15730712
-0.12232746
0.15776975
0.21121035
0.35623484
0.18779411
0.02087603
0.20086829
0.013652703
0.21231004
0.0016255304
0.22144839
-0.014964244
0.22724304
-0.036294293
0.22826616
-0.061350571
0.22342835
-0.087450827
0.21298948
-0.11103818
0.19879843
-0.12912643
0.18344081
-0.14054788
0.169012
-0.14608532
0.15643261
-0.14751492
0.14554543
-0.1465433
0.13574482
-0.14427061
0.12630344
-0.14088627
0.11538969
-0.13660389
0.10138499
-0.13351182
0.089969412
-0.12941346
0.093517761
-0.10686366
0.11567066
-0.048043688
0.14710382
0.037410714
0.17671319
0.12069065
0.19872645
0.18100953
0.21284944
0.21675323
0.22208188
0.24034906
0.22939355
0.26213538
0.23450111
0.27016942
0.23394444
0.23091391
0.22524348
0.1216905
0.2105741
-0.0383349
0.19507537
-0.19079476
0.18190334
-0.27933044
0.17051413
-0.29759569
0.1584904
-0.28503553
0.14665694
-0.27017995
0.14154553
-0.22781021
0.14873081
-0.11190809
0.16533443
0.070430663
0.18291664
0.25418768
0.19521363
0.37710893
0.20167275
0.40649682
0.20384599
0.31998879
0.20149093
0.12123184
0.19388326
-0.1242539
0.18168821
-0.31864688
0.16796121
-0.39878174
0.15839912
-0.33470575
0.15637979
-0.12030812
0.15799524
0.2095949
0.35702491
0.21654453
0.01110826
0.22567098
0.0045262539
0.2330741
-0.0057775939
0.23765992
-0.019550058
0.23834184
-0.036976216
0.2341472
-0.057155934
0.22482817
-0.078131798
0.21132604
-0.097536044
0.19558768
-0.11338807
0.17976692
-0.12472713
0.1653873
-0.1317057
0.15301362
-0.13514124
0.14243047
-0.13596015
0.13306635
-0.13490649
0.12444223
-0.13226215
0.11560428
-0.12776593
0.10439571
-0.12230325
0.092121633
-0.11713938
0.08909409
-0.10383612
0.10463171
-0.063581307
0.13430152
0.0077409055
0.16613419
0.088857978
0.19186577
0.15527795
0.20958361
0.19903539
0.22170264
0.22823003
0.23124389
0.25259413
0.23797877
0.26343454
0.23816619
0.23072649
0.22899216
0.13086453
0.21260144
-0.021944182
0.19482433
-0.17301765
0.17965267
-0.26415878
0.16724228
-0.2851853
0.15510076
-0.27289402
0.14313999
-0.25821917
0.13742807
-0.22209829
0.14436656
-0.11884658
0.16197422
0.052823005
0.18167702
0.23448488
0.19645435
0.3623316
0.2048531
0.39809808
0.20775767
0.31708422
0.20492977
0.12405974
0.19624471
-0.11556885
0.18297342
-0.30537559
0.16829521
-0.38410353
0.1579355
-0.32434604
0.15585397
-0.11822659
0.15865162
0.20679725
0.35648044
0.23990562
0.0069979883
0.24336106
0.0010708132
0.2449869
-0.0074034296
0.24399764
-0.018560802
0.23962852
-0.032607095
0.23139387
-0.048921281
0.21949235
-0.066230284
0.20493892
-0.082982612
0.18929134
-0.097740489
0.17409685
-0.10953264
0.16039807
-0.11800692
0.14857779
-0.12332097
0.13850065
-0.125883
0.12973764
-0.12614348
0.12189973
-0.12442424
0.11465612
-0.12052233
0.10656362
-0.11421075
0.096270612
-0.10684638
0.089244271
-0.096809776
0.096707525
-0.071044561
0.12128845
-0.016840018
0.15321531
0.056931119
0.1819832
0.12651006
0.20329851
0.17772008
0.21839857
0.21312997
0.23010643
0.24088628
0.23837697
0.255164
0.2394832
0.22962026
0.23042822
0.13991951
0.21301791
-0.0045338646
0.19366547
-0.15366521
0.17702147
-0.24751477
0.16387965
-0.27204347
0.15187463
-0.260889
0.14012022
-0.24646475
0.13392952
-0.2159076
0.14032068
-0.12523774
0.15841627
0.034727417
0.17984075
0.21306039
0.19690269
0.34526966
0.207185
0.38781576
0.21088447
0.31338476
0.20777424
0.12716997
0.19828264
-0.10607725
0.18422413
-0.29131707
0.16884989
-0.36872929
0.157842
-0.31333816
0.1557073
-0.11609188
0.15970506
0.20279949
0.35449593
0.24373069
0.0068069543
0.2430476
0.001753907
0.24109387
-0.0054496966
0.23705178
-0.014518718
0.23039967
-0.025954978
0.22093117
-0.039452786
0.20894934
-0.054248455
0.19524059
-0.069273861
0.18088543
-0.083385326
0.16695388
-0.095601086
0.15422691
-0.10527995
0.14307981
-0.11217387
0.13353516
-0.11633835
0.125367
-0.11797532
0.11825967
-0.11731692
0.11209818
-0.11436084
0.10641767
-0.10853024
0.099457567
-0.099886273
0.092064818
-0.089417028
0.092859099
-0.071838841
0.11005847
-0.034039385
0.13907519
0.02791439
0.16936748
0.096217771
0.19394315
0.15314441
0.21211567
0.19495745
0.22604357
0.22695837
0.23583617
0.2453714
0.23797271
0.22748371
0.22933647
0.14855575
0.21155779
0.013244814
0.19160598
-0.1337134
0.17398245
-0.22989125
0.16028862
-0.25834964
0.14857046
-0.24917084
0.13731299
-0.23520728
0.13079864
-0.20939325
0.13644362
-0.13088273
0.1545888
0.016582236
0.17734265
0.19030654
0.19645718
0.32615514
0.20854282
0.37573011
0.21309747
0.30883011
0.20990874
0.1303587
0.19992505
-0.096093563
0.18537902
-0.27677104
0.16956059
-0.35291086
0.15807058
-0.30184815
0.15590846
-0.11392976
0.16111485
0.1975931
0.35097162
0.2311747
0.0079679345
0.2296667
0.0032619107
0.22682111
-0.0026041025
0.22238178
-0.010079396
0.2159035
-0.019476696
0.20724037
-0.03078965
0.19658615
-0.043594234
0.18446452
-0.057152238
0.17163882
-0.070559627
0.15894047
-0.082902728
0.14707719
-0.093416675
0.13650265
-0.10159933
0.1273951
-0.1072308
0.11970949
-0.11028971
0.11323346
-0.11084088
0.10782017
-0.10894755
0.10354465
-0.10425472
0.099570782
-0.095912407
0.09445261
-0.084298856
0.091812254
-0.069198485
0.1005552
-0.042782332
0.12397199
0.0044976025
0.15374264
0.066447118
0.18086877
0.12601828
0.20220446
0.17362177
0.21865839
0.21050444
0.23034468
0.23368511
0.23411645
0.22371194
0.22652066
0.15615154
0.20969162
0.030073862
0.1888681
-0.11288988
0.17037974
-0.21140289
0.15627377
-0.24424367
0.14497324
-0.23787031
0.1344389
-0.22467294
0.12783303
-0.20278738
0.13246558
-0.13551528
0.15021453
-0.0011667073
0.17394743
0.16657364
0.19494792
0.30515465
0.2088528
0.36182523
0.21439566
0.30328725
0.21136005
0.13339431
0.20113982
-0.085873327
0.18635873
-0.26198995
0.17033759
-0.33688972
0.15856119
-0.29007175
0.15642726
-0.11179583
0.16284575
0.19117461
0.34581938
0.2503682
0.0059689277
-0.24836919
0.25199028
0.0016398294
0.25340574
-0.0040195573
0.25422929
-0.010902951
0.25402795
-0.019275352
0.2523536
-0.029115303
0.24890722
-0.040147848
0.24359437
-0.051839386
0.23653603
-0.063501289
0.22804068
-0.074407376
0.21853136
-0.083907362
0.20844809
-0.091516055
0.19816082
-0.09694353
0.18792339
-0.10005227
0.17784496
-0.10076245
0.16788934
-0.098991931
0.1581148
-0.094480179
0.14855616
-0.086353767
0.13817481
-0.073917505
0.12657769
-0.057601368
0.11844451
-0.034649151
0.12001701
0.0029251008
0.13098682
0.05547731
0.14604424
0.11096087
0.16082443
0.15884158
0.1747483
0.19658057
0.18920773
0.21922568
0.20413006
0.20878961
0.21749724
0.14278436
0.22553768
0.022033421
0.22381138
-0.11116358
0.21185368
-0.1994452
0.19524491
-0.22763489
0.1787315
-0.22135691
0.16279864
-0.20874008
0.14823904
-0.18822779
0.13974221
-0.12701844
0.14156854
-0.0029930368
0.15247755
0.15566463
0.1679486
0.2896836
0.18410878
0.34566504
0.19749528
0.28990075
0.20391858
0.12697101
0.20031255
-0.082267295
0.1871506
-0.24882801
0.1686436
-0.31838272
0.15196324
-0.27339138
0.1444826
-0.10431519
0.1487205
0.18693671
0.3398515
0.26333448
0.0043961696
-0.26176172
0.26484281
0.00013149705
0.26582551
-0.0050022643
0.26615824
-0.011235681
0.26552336
-0.01864047
0.26360604
-0.027197983
0.26016258
-0.03670439
0.25509434
-0.046771138
0.2484708
-0.05687775
0.24051387
-0.066450448
0.2315499
-0.074943389
0.22193891
-0.081905064
0.21200379
-0.087008416
0.20198484
-0.090033318
0.19202688
-0.090804499
0.182163
-0.089128046
0.17239583
-0.084713014
0.16289922
-0.076857157
0.15352008
-0.064538358
0.14359779
-0.047679083
0.13493187
-0.025983232
0.13345171
0.0044052637
0.14195128
0.046977739
0.15666013
0.096252018
0.17262518
0.14287653
0.18821741
0.18098834
0.20418165
0.20326143
0.22070029
0.19227097
0.2360632
0.12742145
0.24542292
0.012673702
0.2425507
-0.10829136
0.2285674
-0.18546189
0.21027262
-0.20934011
0.19277046
-0.20385475
0.17619592
-0.19216554
0.16094361
-0.17297547
0.15186354
-0.11793837
0.15365872
-0.0047882195
0.16541791
0.14390544
0.18249823
0.27260329
0.20050476
0.32765851
0.21530322
0.27510228
0.22216815
0.12010609
0.21778047
-0.077879619
0.20303577
-0.23408331
0.18276672
-0.29811367
0.16453688
-0.25516154
0.15628753
-0.096065837
0.16146967
0.18175457
0.33231903
0.27695616
0.0030610383
-0.27562103
0.27802923
-0.00094157646
0.27863413
-0.0056071631
0.27857559
-0.011177142
0.27763057
-0.017695444
0.2755552
-0.025122612
0.27215306
-0.033302257
0.26733306
-0.041951138
0.26113293
-0.050677614
0.2537111
-0.059028621
0.24531491
-0.066547202
0.2362318
-0.072821949
0.22673749
-0.077514104
0.2170578
-0.080353634
0.20735539
-0.081102087
0.19772483
-0.079497486
0.18821717
-0.075205358
0.17901396
-0.067653947
0.17033019
-0.055854588
0.16182473
-0.039173615
0.153923
-0.018081502
0.15022276
0.0081054988
0.15510524
0.04209526
0.16792303
0.083434226
0.18440686
0.12639269
0.2017246
0.1636706
0.21969124
0.18529479
0.23866074
0.17330147
0.2563828
0.10969938
0.26609451
0.0029619929
0.26168804
-0.10388489
0.24567354
-0.16944739
0.22606077
-0.18972734
0.20790742
-0.18570141
0.19091889
-0.175177
0.17509542
-0.15715201
0.1653311
-0.10817405
0.16695432
-0.0064114378
0.17952258
0.13133717
0.19833315
0.25379272
0.21836044
0.30763121
0.23465696
0.25880577
0.24181911
0.11294394
0.23647499
-0.0725355
0.22010664
-0.21771496
0.19813898
-0.27614601
0.17843208
-0.23545464
0.16944615
-0.08707991
0.17567251
0.1755282
0.32297381
0.29102348
0.0020446729
-0.29000711
0.29173129
-0.0016493829
0.29199921
-0.0058750928
0.29164739
-0.010825317
0.29048982
-0.016537878
0.28833767
-0.022970464
0.28503419
-0.029998773
0.2804942
-0.037411151
0.27472748
-0.044910894
0.26783944
-0.052140576
0.26001278
-0.058720542
0.25147574
-0.064284909
0.24246518
-0.068503545
0.23319554
-0.071083994
0.22384454
-0.07175109
0.21455402
-0.070206965
0.2054384
-0.066089746
0.19669039
-0.058905936
0.18870716
-0.047871353
0.18164503
-0.032111488
0.17526418
-0.011700649
0.17090968
0.012459994
0.17233115
0.040673792
0.18165237
0.074113009
0.19699584
0.11104922
0.21538116
0.14528528
0.23571062
0.16496534
0.25776494
0.15124715
0.2778041
0.089660231
0.28733713
-0.006571043
0.28090775
-0.097455507
0.26307034
-0.15160998
0.24263909
-0.16929609
0.22419132
-0.16725363
0.20702912
-0.15801481
0.1908299
-0.14095278
0.18037867
-0.097722815
0.18168011
-0.0077128769
0.19499962
0.11801766
0.21554339
0.23324895
0.23759973
0.28557487
0.25531054
0.24109496
0.26265191
0.10560257
0.25631279
-0.066196374
0.23838388
-0.19978606
0.21485107
-0.25261321
0.19380484
-0.21440841
0.18414409
-0.077419163
0.191506
0.1681663
0.31156639
0.30586004
0.0012761191
-0.30509149
0.30628714
-0.0020764791
0.30628251
-0.0058704666
0.30570082
-0.010243624
0.30438908
-0.01522614
0.30219698
-0.02077836
0.29899809
-0.026799886
0.29471635
-0.033129411
0.28934591
-0.039540454
0.28295636
-0.045751032
0.27568313
-0.051447303
0.26770715
-0.056308931
0.25922981
-0.06002621
0.25045027
-0.062304453
0.24155307
-0.062853887
0.23271114
-0.061365034
0.22409733
-0.057475937
0.21593199
-0.050740596
0.20862592
-0.040565282
0.20270002
-0.026185595
0.19822939
-0.0072300192
0.19511741
0.015571983
0.19498032
0.040810878
0.20057907
0.068514261
0.21296701
0.098661286
0.23104655
0.12720573
0.25369975
0.14231214
0.27913967
0.12580723
0.3007705
0.068029406
0.30872529
-0.014525833
0.29971766
-0.088447877
0.28058544
-0.13247777
0.26002916
-0.14873981
0.24167906
-0.14890353
0.22459752
-0.14093327
0.20827262
-0.12462788
0.19718398
-0.086634181
0.19795068
-0.0084795792
0.21181805
0.10415029
0.23401623
0.21105077
0.25803786
0.26155324
0.27705255
0.22208027
0.28447356
0.098181564
0.27715048
-0.058873296
0.25781669
-0.18045226
0.23295555
-0.22775207
0.21079696
-0.19224982
0.2005708
-0.067193005
0.20912946
0.15960764
0.29786042
0.32160069
0.00071019135
-0.32103476
0.32180256
-0.002278347
0.32158219
-0.0056501035
0.32082415
-0.0094855841
0.31940471
-0.013806703
0.31720457
-0.018578219
0.3141232
-0.023718517
0.31009536
-0.029101567
0.3051064
-0.034551495
0.29919988
-0.039844509
0.29247462
-0.04472204
0.28507334
-0.048907654
0.27716691
-0.052119781
0.2689391
-0.054076639
0.26057731
-0.054492106
0.25227481
-0.053062528
0.24424524
-0.04944637
0.23675004
-0.043245392
0.23018046
-0.033995706
0.22515264
-0.021157772
0.22220358
-0.0042809615
0.22128373
0.016491835
0.22235291
0.039741693
0.22674688
0.064120287
0.23669652
0.088711648
0.25375138
0.11015087
0.27777916
0.11828436
0.30472637
0.098860026
0.3249298
0.047825971
0.32920198
-0.018798011
0.31765114
-0.076897037
0.29825425
-0.11308088
0.27833643
-0.12882199
0.26042489
-0.13099199
0.24367193
-0.12418031
0.22754081
-0.10849675
0.21594839
-0.07504176
0.21589653
-0.0084277254
0.22988862
0.090158202
0.25348304
0.18745635
0.27932253
0.23571376
0.29950269
0.20190011
0.30692597
0.09075828
0.29874404
-0.050691367
0.27831595
-0.16002417
0.25249081
-0.20192693
0.22954089
-0.1692999
0.21891026
-0.056562376
0.2286856
0.14983231
0.28166913
0.3383476
0.00034431102
-0.33798172
0.33837791
-0.0023086605
0.3379976