/*--------------------------------*- C++ -*----------------------------------*\
| =========                 |                                                 |
| \\      /  F ield         | OpenFOAM: The Open Source CFD Toolbox           |
|  \\    /   O peration     | Version:  2406                                  |
|   \\  /    A nd           | Website:  www.openfoam.com                      |
|    \\/     M anipulation  |                                                 |
\*---------------------------------------------------------------------------*/
FoamFile
{
    version     2.0;
    format      ascii;
    arch        "LSB;label=32;scalar=64";
    class       surfaceScalarField;
    location    "30";
    object      phi_0;
}
// * * * * * * * * * * * * * * * * * * * * * * * * * * * * * * * * * * * * * //

dimensions      [0 3 -1 0 0 0 0];

oriented        oriented;

internalField   nonuniform List<scalar> 
18180
(
-0.00052355402
0.0015776469
-0.0010540927
-0.0011164112
0.0027944668
-0.0022016094
-0.0010063262
0.002479763
-0.0025898478
0.00050891278
0.00062612961
-0.0021413684
0.0041097828
-0.002946499
-0.0006543707
0.010454417
-0.0084669828
0.0021223491
0.020064697
-0.01606189
0.0064516099
0.033178324
-0.025623705
0.012510078
0.049602733
-0.036745638
0.02032123
0.068682782
-0.048774151
0.029694102
0.089396983
-0.060951493
0.040237292
0.11055235
-0.072584837
0.051429468
0.13100779
-0.083176798
0.062721361
0.14986145
-0.092485597
0.073631934
0.16656132
-0.10051532
0.083815453
0.18092647
-0.10745637
0.093091227
0.19309101
-0.11360278
0.10143823
0.20339664
-0.11926955
0.10896392
0.21226521
-0.12473475
0.11586617
-0.13016921
0.12230401
0.22013042
-0.00019954244
0.0017771895
4.3088952e-05
0.0025518355
0.0015157067
0.0010071455
0.0049964272
-0.0028545908
0.011217235
-0.0091673063
0.020725166
-0.017974914
0.033683302
-0.029020025
0.049716117
-0.04165652
0.067920412
-0.054949933
0.087056154
-0.067909892
0.10583636
-0.079731703
0.1232014
-0.089949871
0.13849404
-0.098469444
0.15150425
-0.1054958
0.16239924
-0.11141031
0.17158412
-0.11664125
0.17954667
-0.12156532
0.18673177
-0.12645465
0.19346573
-0.13146871
-0.13666031
0.19995683
0.00013573082
0.0016414588
0.0012888268
0.0013987397
0.0042963196
-0.0020003472
0.009962926
-0.0085211969
0.018895922
-0.018100302
0.031246462
-0.030325454
0.046518855
-0.044292418
0.06361672
-0.058754385
0.081130288
-0.072463501
0.097720435
-0.084500039
0.11243331
-0.094444576
0.12484595
-0.10236251
0.13503186
-0.10865536
0.14340153
-0.11386547
0.15050066
-0.11850944
0.15683979
-0.12298038
0.16279595
-0.12752147
0.16858966
-0.13224836
0.17431247
-0.13719151
-0.1423289
0.17998105
0.00044553557
0.0011959233
0.0025593389
-0.00071506348
0.0072157281
-0.0066567363
0.015114819
-0.016420288
0.026466118
-0.029451601
0.040729966
-0.044589302
0.056668251
-0.060230703
0.072720672
-0.074806806
0.087490389
-0.087233218
0.10010274
-0.097112394
0.11031864
-0.10466048
0.11841984
-0.1104637
0.12496941
-0.11520493
0.13056889
-0.11946495
0.13569613
-0.12363668
0.14064761
-0.12793186
0.14555986
-0.13243373
0.1504659
-0.1371544
0.15534962
-0.14207524
-0.14716537
0.1601861
0.00078374695
0.00041217651
0.0039334556
-0.0038647719
0.010286625
-0.013009906
0.020198228
-0.02633189
0.033189975
-0.042443348
0.047946505
-0.059345832
0.062757326
-0.075041523
0.076120335
-0.088169815
0.087170358
-0.098283241
0.095776831
-0.10571887
0.1023572
-0.11124085
0.10756573
-0.11567223
0.11202026
-0.11965946
0.11615612
-0.12360081
0.12020694
-0.12768749
0.12425881
-0.13198373
0.12831953
-0.13649445
0.13236938
-0.14120425
0.13638667
-0.14609253
-0.15113954
0.14036084
0.0011783687
-0.00076619212
0.0054360032
-0.0081224062
0.013373466
-0.020947369
0.024722161
-0.037680584
0.03819666
-0.055917847
0.051943158
-0.073092329
0.064278917
-0.087377282
0.074243002
-0.0981339
0.081719546
-0.10575978
0.087196664
-0.11119599
0.091385421
-0.1154296
0.094912661
-0.11919947
0.098184662
-0.12293146
0.1013971
-0.12681325
0.10461108
-0.13090148
0.10782739
-0.13520004
0.11103074
-0.1396978
0.11420683
-0.14438034
0.11734644
-0.14923214
-0.15424341
0.1204503
0.0016251118
-0.0023913038
0.0069771821
-0.013474476
0.016151722
-0.030121909
0.028074075
-0.049602937
0.040806194
-0.068649966
0.052408588
-0.084694723
0.061689416
-0.09665811
0.068429869
-0.10487435
0.073122467
-0.11045238
0.076516796
-0.11459031
0.079260072
-0.11817288
0.081753022
-0.12169242
0.084176775
-0.12535522
0.086583987
-0.12922047
0.088976484
-0.13329397
0.091345309
-0.13756886
0.093682566
-0.14203505
0.095982074
-0.14667985
0.098240828
-0.15149089
-0.1564673
0.10046472
0.0020909425
-0.0044822461
0.0083863733
-0.019769907
0.018235612
-0.039971147
0.029781192
-0.061148517
0.040800101
-0.079668876
0.04971783
-0.093612452
0.056058236
-0.10299852
0.06023126
-0.10904738
0.063007138
-0.11322826
0.065073298
-0.11665647
0.066852975
-0.11995256
0.06853404
-0.12337348
0.070171869
-0.12699304
0.071772487
-0.13082109
0.073332485
-0.13485397
0.07484923
-0.13908561
0.076319983
-0.14350581
0.077741345
-0.14810121
0.079113487
-0.15286303
-0.15779885
0.080445038
0.0025242229
-0.0070064687
0.0094715409
-0.026717225
0.019325503
-0.049825108
0.02967453
-0.071497544
0.038432763
-0.088427109
0.044666698
-0.099846388
0.048567614
-0.10689943
0.05088654
-0.1113663
0.052369646
-0.11471137
0.053494114
-0.11778094
0.05447656
-0.120935
0.055384687
-0.12428161
0.05623065
-0.12783901
0.057015131
-0.13160557
0.057739171
-0.13557801
0.058403538
-0.13974997
0.059006781
-0.14410905
0.059546604
-0.14864103
0.060025414
-0.15334184
-0.15822576
0.060452326
0.0028796518
-0.0098861202
0.010092115
-0.033929688
0.019300052
-0.059033046
0.027889533
-0.080087025
0.034246051
-0.094783626
0.038126494
-0.10372683
0.04016514
-0.10893808
0.041166701
-0.11236786
0.041695246
-0.11523991
0.042022454
-0.11810815
0.042240568
-0.12115312
0.042370525
-0.12441157
0.042416661
-0.12788514
0.042381921
-0.13157082
0.042269529
-0.13546562
0.042081073
-0.13956152
0.04181547
-0.14384345
0.041471196
-0.14829676
0.041051519
-0.15292216
0.040563364
-0.1577376
-0.00090980784
-0.0068538354
0.0077636434
-0.0030497027
-0.012258325
0.01439822
-0.006037187
-0.013308153
0.016295638
-0.0096394118
-0.012154712
0.015756937
-0.013706709
-0.010002121
0.014069419
-0.018122736
-0.0072800995
0.011696127
-0.022783904
-0.0039731618
0.0086343293
-0.027551994
7.2386709e-05
0.0046957036
-0.032330561
0.0050173002
-0.00023873229
-0.036992425
0.010979329
-0.0063174653
-0.041381041
0.018004804
-0.013616188
-0.045329767
0.026056604
-0.022107878
-0.048649725
0.035007311
-0.031687353
-0.051124296
0.04462651
-0.042151939
-0.052503473
0.054569504
-0.053190327
-0.052493037
0.064370412
-0.064380848
-0.050734132
0.073442744
-0.075201648
-0.046775445
0.081091493
-0.08505018
-0.040049075
0.086537301
-0.093263671
0.088945493
-0.029861636
-0.099132932
-0.0010828634
-0.005770972
-0.0034032988
-0.0099378896
-0.0064971139
-0.010214338
-0.010151693
-0.0085001332
-0.014253012
-0.0059008017
-0.01869106
-0.0028420511
-0.023325075
0.00066085344
-0.027997082
0.0047443937
-0.03252901
0.0095492286
-0.036710539
0.015160857
-0.040297621
0.021591887
-0.043012565
0.028771548
-0.044540334
0.036535081
-0.04452505
0.044611226
-0.042566861
0.052611316
-0.038223625
0.060027176
-0.031024664
0.066243782
-0.020468671
0.070535501
-0.0060916399
0.07216027
0.070390389
0.012463464
-0.0010794439
-0.004691528
-0.0032574299
-0.0077599034
-0.0060487127
-0.0074230553
-0.0092565713
-0.0052922745
-0.01278732
-0.0023700527
-0.016529961
0.00090059011
-0.020318701
0.0044495935
-0.023944234
0.0083699268
-0.027159853
0.012764848
-0.029681999
0.017683004
-0.031187829
0.023097718
-0.031315168
0.028898887
-0.029665924
0.034885837
-0.025816582
0.040761885
-0.019326232
0.046120966
-0.0097610022
0.050461946
0.0032647846
0.053217996
0.020030004
0.053770282
0.040617329
0.051572945
0.046166847
0.064840872
-0.00096169171
-0.0037298361
-0.0028051802
-0.0059164148
-0.005047594
-0.0051806414
-0.0074827586
-0.0028571097
-0.010019225
0.00016641387
-0.012543518
0.003424883
-0.014876156
0.0067822318
-0.016770567
0.010264338
-0.017932489
0.013926769
-0.018030745
0.01778126
-0.01670596
0.021772933
-0.013572469
0.025765396
-0.0082297655
0.029543133
-0.00028045704
0.032812576
0.010639017
0.035201492
0.024810866
0.036290098
0.042387032
0.035641829
0.063324936
0.032832378
0.087336568
0.027561314
0.019681367
0.11382205
-0.00082102007
-0.0029088159
-0.0023145109
-0.0044229238
-0.0039904107
-0.0035047415
-0.0056030461
-0.0012444741
-0.0070306013
0.0015939692
-0.0081575598
0.0045518418
-0.0088086978
0.0074333699
-0.0087362027
0.010191844
-0.0076388018
0.012829368
-0.005186265
0.015328723
-0.001026909
0.017613577
0.0051892854
0.019549202
0.013788985
0.020943433
0.025047498
0.021554063
0.039157783
0.021091207
0.056193364
0.019254518
0.076043331
0.015791863
0.098411657
0.010464053
0.12292235
0.0030506231
-0.0068750241
0.14947874
-0.00073924484
-0.0021695709
-0.0020234861
-0.0031386823
-0.0033290734
-0.0021991541
-0.0043490877
-0.00022445964
-0.0049069703
0.002151852
-0.0048721563
0.004517028
-0.0040832915
0.0066445053
-0.0023250974
0.0084336498
0.00066496706
0.0098393041
0.0051785531
0.010815137
0.011503308
0.011288823
0.019906677
0.011145832
0.030602949
0.010247162
0.043728577
0.0084284353
0.059337489
0.0054822948
0.077425581
0.0011664254
0.09803767
-0.0048202263
0.12130066
-0.012798937
0.14736057
-0.023009282
-0.035574564
0.17606011
-0.0007532006
-0.0014163702
-0.002034814
-0.0018570688
-0.0032649238
-0.00096904409
-0.0040697139
0.00058033065
-0.0042181166
0.0023002549
-0.0035465526
0.0038454642
-0.0018977292
0.004995682
0.00091508412
0.0056208367
0.0051147693
0.0056396191
0.010944009
0.0049858979
0.018650714
0.003582118
0.028484263
0.0013122832
0.040721679
-0.0019902539
0.05569248
-0.0065423658
0.073736808
-0.012562033
0.095122447
-0.020219213
0.11990892
-0.0296067
0.14775821
-0.040648223
0.17789385
-0.053144926
-0.066464336
0.20878362
-0.00082972272
-0.00058664732
-0.002239801
-0.00044699029
-0.0035825043
0.00037365934
-0.0044331329
0.0014309594
-0.0045016958
0.002368818
-0.003566535
0.0029103036
-0.0014125609
0.0028417081
0.002187181
0.002021095
0.0075328044
0.00029399594
0.015001505
-0.0024828027
0.025037927
-0.0064543041
0.038107016
-0.011756805
0.054588723
-0.018471962
0.074639943
-0.026593585
0.098091935
-0.036014025
0.1244121
-0.046539379
0.15270184
-0.057896437
0.18179242
-0.069738803
0.21036301
-0.081715519
-0.093126235
0.23702491
-0.00087044452
0.00028379738
-0.0023243255
0.0010068909
-0.0036616074
0.0017109414
-0.0043924984
0.0021618506
-0.0041332172
0.002109537
-0.0025332699
0.0013103566
0.0008089173
-0.00050047891
0.0063136347
-0.0034836222
0.014505123
-0.007897492
0.025851068
-0.013828748
0.040665029
-0.021268265
0.058978512
-0.030070288
0.080473245
-0.039966695
0.10448222
-0.050602561
0.13005685
-0.061588651
0.15607327
-0.072555804
0.18137165
-0.083194816
0.2049125
-0.093279656
0.22589327
-0.10269628
-0.11122517
0.2439922
-0.00077029523
-0.0019650136
-0.0028439199
-0.0028234374
-0.0013682711
0.0020644348
0.0080155658
0.017042021
0.029465759
0.045331113
0.06430014
0.085659321
0.10841399
0.13144336
0.15367016
0.17420559
0.192449
0.20813326
0.22130315
0.23238199
-0.010737562
0.11692148
-0.13604556
0.013382111
0.10641493
-0.13053461
0.040509574
0.085381035
-0.1125085
0.067888382
0.055400609
-0.082779416
0.093135588
0.0184044
-0.043651606
0.11529968
-0.024440616
0.0022765205
0.13432627
-0.071749572
0.05272298
0.15002915
-0.11957734
0.10387446
0.16141106
-0.16029574
0.14891384
0.16756945
-0.1869696
0.18081122
0.16873915
-0.19821404
0.19704433
0.16630929
-0.19847869
0.20090855
0.16173807
-0.19412814
0.19869936
0.15500188
-0.19092803
0.19766423
0.14543886
-0.19431203
0.20387505
0.1360826
-0.20189254
0.21124879
0.13374763
-0.19116198
0.19349696
0.14163851
-0.13421492
0.12632404
0.15691257
-0.03218738
0.016913324
0.17425154
0.083786779
-0.10112575
0.18842945
0.17829258
-0.19247049
0.19647282
0.23281197
-0.24085535
0.198661
0.25162899
-0.25381716
0.19686112
0.25344424
-0.25164436
0.19233333
0.25872457
-0.25419677
0.18631282
0.2737752
-0.26775469
0.18133533
0.27423879
-0.26926129
0.17960322
0.21591379
-0.21418168
0.18129651
0.080880615
-0.082573908
0.18529926
-0.093930709
0.089927959
0.18969615
-0.24213877
0.23774189
0.19177684
-0.31998337
0.31790267
0.18928998
-0.33813812
0.34062498
0.18287718
-0.33596161
0.34237441
0.17656905
-0.31826421
0.32457234
0.17452338
-0.23878532
0.24083099
0.17722064
-0.068458992
0.065761737
0.18173599
0.14633144
-0.15084679
0.18424127
0.32256451
-0.32506979
0.18267938
0.41388637
-0.41232448
0.17918449
0.41595839
-0.41246351
0.17802655
0.31549475
-0.31433681
0.1796278
0.10380428
-0.10540553
0.18018981
-0.1598025
0.15924049
0.17672233
-0.37139043
0.37485791
0.1708714
-0.45360012
0.45945105
0.16687811
-0.36476656
0.36875985
0.16527333
-0.11693822
0.118543
0.1615921
0.21851369
-0.21483245
0.34306006
-0.33710568
0.036575376
0.09280957
0.06253876
0.080451549
0.088297866
0.059621929
0.1117175
0.031980977
0.13168831
-0.0015664159
0.14802341
-0.040775712
0.16113434
-0.084860504
0.17050396
-0.12894695
0.17511591
-0.1649077
0.17476079
-0.18661449
0.17053759
-0.19399083
0.16415361
-0.19209471
0.15689616
-0.18687069
0.14846968
-0.18250156
0.13722496
-0.18306731
0.12472982
-0.1893974
0.11878249
-0.18521465
0.12563682
-0.14106925
0.1431649
-0.049715468
0.16478596
0.062165727
0.18388135
0.15919719
0.19643189
0.22026144
0.20211389
0.24594699
0.2028982
0.25265993
0.20081066
0.26081211
0.19753479
0.27705107
0.19469923
0.27707435
0.19293272
0.21768029
0.19181932
0.081994021
0.19123337
-0.093344761
0.19099651
-0.24190191
0.18959027
-0.31857712
0.18478062
-0.33332848
0.1765079
-0.32768889
0.16867591
-0.31043223
0.16640818
-0.2365176
0.17091827
-0.072969081
0.17864586
0.13860384
0.18446158
0.3167488
0.18558746
0.41276049
0.18399668
0.41754917
0.18351766
0.31597377
0.18422521
0.10309672
0.18284057
-0.15841786
0.17720854
-0.3657584
0.16946782
-0.4458594
0.16431508
-0.35961382
0.1626855
-0.11530864
0.15996448
0.2212347
0.34817592
0.088340971
0.069309471
0.11137419
0.057418333
0.13234864
0.038647476
0.15011303
0.01421659
0.16441551
-0.015868898
0.17570338
-0.052063586
0.18375095
-0.092908067
0.18737364
-0.13256964
0.18579797
-0.16333203
0.17978539
-0.18060191
0.17124092
-0.18544636
0.16195017
-0.18280396
0.15281188
-0.1777324
0.14339514
-0.17308482
0.13161358
-0.17128575
0.11715853
-0.17494234
0.10716485
-0.17522097
0.11113308
-0.14503748
0.12936518
-0.067947564
0.15437489
0.037156015
0.1780001
0.13557197
0.19505622
0.20320532
0.20446731
0.2365359
0.20813542
0.24899181
0.20871992
0.26022761
0.20826065
0.27751034
0.20752239
0.27781261
0.20569788
0.2195048
0.20185942
0.085832483
0.19685506
-0.088340404
0.19214752
-0.23719437
0.18741459
-0.3138442
0.18054901
-0.3264629
0.17075396
-0.31789384
0.16156257
-0.30124083
0.15892255
-0.23387757
0.16492636
-0.078972893
0.17560854
0.12792166
0.18464889
0.30770845
0.1885221
0.40888728
0.18887812
0.41719316
0.18902848
0.31582341
0.18880894
0.10331626
0.18555377
-0.15516269
0.17791502
-0.35811966
0.16841912
-0.4363635
0.16214654
-0.35334124
0.16050494
-0.11366704
0.1588169
0.22292275
0.35236485
0.13365482
0.049476703
0.15185516
0.039217991
0.16750618
0.02299645
0.18030933
0.0014134422
0.19054664
-0.026106211
0.1981664
-0.059683346
0.20184712
-0.09658878
0.2001532
-0.13087572
0.19313609
-0.15631492
0.18260838
-0.1700742
0.1709624
-0.17380038
0.15979596
-0.17163752
0.14952417
-0.16746062
0.13964758
-0.16320822
0.12827236
-0.15991054
0.11354279
-0.16021277
0.10012517
-0.16180335
0.099407837
-0.14432014
0.11599389
-0.084533616
0.14296602
0.010183889
0.17050509
0.1080329
0.19194515
0.18176526
0.2052488
0.22323225
0.21203683
0.24220378
0.2154021
0.25686234
0.21768551
0.27522693
0.21893812
0.27656
0.21713199
0.22131094
0.21090342
0.092061053
0.20192326
-0.079360244
0.19310317
-0.22837428
0.18528894
-0.30602997
0.17665226
-0.31782622
0.1657111
-0.30695268
0.15539374
-0.29092347
0.15224177
-0.2307256
0.15933105
-0.086062178
0.17259584
0.11465687
0.18469864
0.29560565
0.1913288
0.40225712
0.19364506
0.4148769
0.19438995
0.31507851
0.19326689
0.10443933
0.18827285
-0.15016866
0.17882143
-0.34866823
0.16773318
-0.42527525
0.16039365
-0.3460017
0.15874329
-0.11201668
0.15815202
0.22351401
0.35553135
0.16556203
0.033393413
0.18014854
0.024631485
0.19272837
0.010416612
0.2031709
-0.0090290892
0.21124295
-0.03417826
0.21575886
-0.064199253
0.21501312
-0.095843043
0.20830889
-0.12417148
0.19685808
-0.14486412
0.1831805
-0.15639661
0.16966805
-0.16028793
0.15753374
-0.15950322
0.14677411
-0.15670099
0.1368235
-0.15325761
0.12635533
-0.14944236
0.1129466
-0.14680404
0.097936704
-0.14679345
0.091773852
-0.13815729
0.10394963
-0.096709391
0.1307198
-0.016586281
0.16117172
0.077580972
0.18670488
0.15623211
0.20398476
0.20595237
0.21407637
0.23211217
0.22024954
0.25068917
0.22509949
0.27037698
0.22819876
0.27346073
0.22658635
0.22292335
0.21848518
0.10016222
0.20616641
-0.06704147
0.19375205
-0.21595992
0.1831777
-0.29545562
0.17305521
-0.30770372
0.1613531
-0.29525057
0.15020157
-0.27977194
0.14643085
-0.22695488
0.15418441
-0.093815733
0.16956363
0.099277653
0.18449108
0.2806782
0.1938341
0.3929141
0.19810122
0.41060977
0.19943287
0.31374686
0.19748413
0.10638807
0.19092881
-0.14361333
0.17988895
-0.33762837
0.16739908
-0.41278539
0.15906386
-0.33766648
0.15740296
-0.11035578
0.15796171
0.22295526
0.35757384
0.18986073
0.019592792
0.20264578
0.01184643
0.21378516
-0.00072276481
0.22252524
-0.017769168
0.22776179
-0.039414806
0.22806509
-0.064502554
0.22247297
-0.090250928
0.21144142
-0.11313993
0.19695271
-0.13037542
0.1815809
-0.1410248
0.16730105
-0.14600808
0.15489882
-0.14710099
0.14413719
-0.14593936
0.13440719
-0.14352761
0.12493432
-0.1399695
0.11374507
-0.13561479
0.099572875
-0.13262126
0.089095453
-0.12767987
0.094585834
-0.10219977
0.11821653
-0.040216975
0.14993877
0.045858734
0.17900863
0.12716224
0.2002477
0.18471329
0.21378475
0.21857512
0.22276393
0.24170999
0.22997024
0.26317067
0.23476762
0.26866334
0.23357344
0.22411752
0.22422165
0.10951401
0.20932933
-0.052149147
0.1939514
-0.200582
0.1809969
-0.28250112
0.16966185
-0.29636867
0.15756177
-0.28315049
0.14591035
-0.26812052
0.14148213
-0.22252666
0.14946922
-0.10180282
0.16645055
0.082296323
0.18389775
0.263231
0.1958577
0.38095415
0.20205007
0.40441741
0.20399059
0.31180635
0.20134409
0.10903457
0.19344503
-0.13571427
0.18106501
-0.32524836
0.16738963
-0.39911
0.15815232
-0.32842917
0.15647692
-0.10868037
0.15822779
0.22120439
0.35838627
0.21837523
0.010001182
0.2272228
0.0029988657
0.23420748
-0.0077074499
0.23825002
-0.02181171
0.23827582
-0.039440606
0.23338224
-0.059608973
0.22344924
-0.080317921
0.20954786
-0.099238553
0.19367687
-0.11450442
0.17793756
-0.12528548
0.16374435
-0.13181487
0.1515639
-0.13492053
0.14112457
-0.13550003
0.13185353
-0.13425657
0.12328292
-0.13139889
0.11433789
-0.12666976
0.10286605
-0.12114942
0.09092528
-0.11573909
0.089442761
-0.10071725
0.1067411
-0.057515312
0.13715275
0.015447078
0.16868569
0.09562931
0.19369474
0.15970424
0.21078492
0.20148494
0.2225924
0.22990251
0.23198172
0.25378135
0.238349
0.26229606
0.23780503
0.2246615
0.22785409
0.11946495
0.21119006
-0.035485121
0.19351284
-0.18290478
0.17861155
-0.26759982
0.16633858
-0.28409571
0.15416254
-0.27097445
0.14235717
-0.25631515
0.1373149
-0.2174844
0.1451135
-0.10960142
0.16318042
0.064229408
0.18279333
0.24361808
0.19722812
0.36651936
0.20530753
0.39633801
0.20790653
0.30920734
0.20473274
0.11220836
0.19573831
-0.12671983
0.18228596
-0.31179602
0.16766278
-0.38448683
0.15764322
-0.31840961
0.15595031
-0.10698746
0.1589233
0.2182314
0.35786062
0.2409474
0.0060786888
0.24409248
-0.00014620909
0.24531085
-0.0089258244
0.24383008
-0.02033094
0.23892353
-0.034534051
0.23017582
-0.050861267
0.21787661
-0.06801871
0.20310976
-0.084471704
0.1874425
-0.09883716
0.17237044
-0.11021343
0.15885906
-0.11830349
0.14722796
-0.12328944
0.13730519
-0.12557725
0.12865295
-0.12560434
0.12090807
-0.12365401
0.11370136
-0.11946305
0.10545195
-0.11290001
0.09511327
-0.10540041
0.088988413
-0.094592396
0.098134151
-0.06666105
0.12390431
-0.010323081
0.15590505
0.063628568
0.18409004
0.13151926
0.20476332
0.18081166
0.21948526
0.21518057
0.23098291
0.2422837
0.23884187
0.25443711
0.23916261
0.22434076
0.22920804
0.12941952
0.21149961
-0.017776693
0.1922131
-0.16361826
0.17587372
-0.25126045
0.16293958
-0.27116157
0.15094798
-0.25898285
0.13932197
-0.24468913
0.1337621
-0.21192453
0.14104518
-0.1168845
0.15967826
0.045596332
0.18106889
0.22222745
0.19779235
0.3497959
0.20770884
0.38642152
0.21103725
0.30587893
0.20753371
0.11571189
0.19771873
-0.11690486
0.18348379
-0.29756107
0.16816571
-0.36916875
0.15750707
-0.30775097
0.15580075
-0.10528114
0.16001392
0.21401823
0.35589039
0.24400804
0.0060628512
0.24306615
0.00079568402
0.24079282
-0.0066524926
0.23638751
-0.01592563
0.22936132
-0.027507862
0.21956065
-0.041060599
0.2073412
-0.055799258
0.19352248
-0.070652986
0.17918469
-0.084499367
0.16536604
-0.096394779
0.15280172
-0.10573917
0.14182706
-0.11231478
0.13243905
-0.11618924
0.12439791
-0.1175632
0.11740024
-0.11665633
0.11135157
-0.11341438
0.10568463
-0.10723308
0.098604331
-0.098320116
0.091530141
-0.087518206
0.093582044
-0.068712954
0.11219535
-0.02893639
0.1417185
0.034105425
0.17167807
0.10155968
0.19565855
0.15683118
0.21339624
0.19744288
0.22704634
0.2286336
0.23638801
0.24509544
0.23771883
0.22300994
0.22811608
0.13902228
0.2101021
0.00023728724
0.19007407
-0.14359024
0.17274843
-0.2339348
0.15931896
-0.2577321
0.14766866
-0.24733255
0.13651951
-0.23353999
0.13057511
-0.20598014
0.1371213
-0.12343069
0.15587479
0.026842841
0.17865794
0.1994443
0.19744678
0.33100706
0.2091277
0.3747406
0.21325372
0.30175291
0.20963236
0.11933325
0.19931592
-0.10658842
0.18459681
-0.28284197
0.16883394
-0.35340587
0.15769678
-0.29661381
0.155997
-0.10358136
0.16145837
0.20855686
0.35237465
0.23108441
0.0073604315
0.2294177
0.0024624007
0.22631079
-0.0035455839
0.22159951
-0.011214352
0.21485134
-0.020759693
0.20595188
-0.032161139
0.19512516
-0.044972539
0.18291702
-0.058444839
0.17009604
-0.07167839
0.15747988
-0.083778617
0.14574959
-0.094008882
0.13533001
-0.10189519
0.12637755
-0.10723678
0.11883233
-0.11001798
0.11247769
-0.11030169
0.107196
-0.1081327
0.10305309
-0.10309017
0.099077507
-0.094344531
0.09397299
-0.082413689
0.092001422
-0.066741386
0.10199296
-0.03892793
0.12635184
0.0097465434
0.156141
0.071770521
0.18280548
0.1301667
0.20368472
0.17656364
0.21979925
0.21251907
0.23100697
0.23388771
0.23396402
0.22005289
0.2255773
0.147409
0.20799292
0.017821671
0.18724543
-0.12284275
0.16906694
-0.21575632
0.15528167
-0.24394683
0.14410479
-0.23615566
0.13366708
-0.22310228
0.12755505
-0.19986811
0.13306701
-0.12894264
0.15149684
0.0084130044
0.17532627
0.17561487
0.19602523
0.3103081
0.20949589
0.36126994
0.21455797
0.29669083
0.21105843
0.12283279
0.20049548
-0.096025465
0.1855438
-0.26789028
0.16957813
-0.33744021
0.15815353
-0.28518921
0.15650947
-0.1019373
0.16322054
0.20184579
0.34722381
0.25074532
0.0053984598
-0.24878335
0.25226957
0.00093815487
0.25359628
-0.0048722902
0.25427291
-0.011890988
0.25388393
-0.020370708
0.25199887
-0.030276082
0.24834082
-0.041314491
0.24283633
-0.052940346
0.23562335
-0.064465412
0.22701987
-0.075175133
0.21744913
-0.084438139
0.20734325
-0.091789311
0.19706024
-0.096953772
0.18684176
-0.099799495
0.17678342
-0.10024335
0.16684633
-0.098195607
0.15711236
-0.093356193
0.14757149
-0.084803666
0.13709813
-0.071940331
0.12556028
-0.05520354
0.11808215
-0.031449799
0.12050722
0.0073214779
0.1320404
0.060237339
0.14717933
0.11502777
0.16186073
0.16188224
0.17578389
0.19859591
0.19033811
0.21933349
0.20526731
0.20512369
0.2184896
0.1341867
0.22589323
0.01041804
0.22335199
-0.1203015
0.21078352
-0.20318785
0.19406438
-0.2272277
0.17764474
-0.21973602
0.16177035
-0.20722789
0.14743012
-0.18552789
0.1395008
-0.12101332
0.14195742
0.0059563793
0.15328679
0.16428551
0.16888891
0.29470597
0.18499085
0.345168
0.19812222
0.28355946
0.20409539
0.11685962
0.19998578
-0.091915857
0.18645681
-0.25436131
0.16785835
-0.31884175
0.1514315
-0.26876236
0.14443412
-0.09493991
0.14904988
0.19723002
0.34121514
0.26363352
0.0038625684
-0.26209763
0.26505941
-0.00048773087
0.2659374
-0.0057502843
0.26612999
-0.012083577
0.26533151
-0.019572228
0.26323505
-0.028179618
0.25960956
-0.037689007
0.25437261
-0.04770339
0.24760799
-0.057700793
0.23954656
-0.067113702
0.23051666
-0.075408242
0.2208739
-0.082146551
0.2109327
-0.08701257
0.20092436
-0.08979115
0.19098555
-0.09030454
0.18114225
-0.088352305
0.17140916
-0.083623109
0.16197317
-0.075367674
0.15262147
-0.062588625
0.14273712
-0.045319196
0.13441735
-0.023130024
0.13373891
0.0079999151
0.1429028
0.051073448
0.15783944
0.10009113
0.17377569
0.14594599
0.18937058
0.18300102
0.20541544
0.20328862
0.22200543
0.18853371
0.23724259
0.11894954
0.24578987
0.0018707532
0.24194519
-0.11645682
0.22733235
-0.18857501
0.20898852
-0.20888387
0.19163169
-0.20237919
0.17512847
-0.19072467
0.16009429
-0.1704937
0.1515883
-0.11250732
0.15408596
0.0034587145
0.16630341
0.15206806
0.18354299
0.27746639
0.20147952
0.32723147
0.21598247
0.26905651
0.22233983
0.11050226
0.21739486
-0.086970886
0.20226301
-0.23922946
0.18190568
-0.29848442
0.16394899
-0.25080567
0.15623113
-0.087222045
0.16184849
0.19161266
0.33363539
0.27716982
0.0025779559
-0.27588521
0.27817987
-0.0014977763
0.27868304
-0.0062534599
0.27850103
-0.011901568
0.27741217
-0.018483364
0.27518003
-0.025947478
0.27161861
-0.034127588
0.26664919
-0.042733976
0.26032087
-0.051372469
0.25279983
-0.059592657
0.24433616
-0.06694458
0.2352153
-0.073025689
0.22570769
-0.077504956
0.21603295
-0.080116408
0.20634862
-0.080620212
0.19674499
-0.078748678
0.18727802
-0.074156139
0.17815028
-0.066239933
0.16955779
-0.053996138
0.16112449
-0.036885888
0.15344109
-0.015446634
0.15030109
0.011139922
0.15585639
0.045518149
0.16906741
0.086880107
0.18564921
0.12936419
0.2030054
0.16564484
0.22109069
0.18520334
0.24020434
0.16942006
0.25769783
0.10145604
0.26646175
-0.0068931648
0.26091007
-0.11090514
0.2442872
-0.17195214
0.22470071
-0.18929737
0.20673554
-0.18441402
0.18982511
-0.17381424
0.17420587
-0.15487446
0.16502723
-0.10332868
0.1673961
0.0010898433
0.18048418
0.13897998
0.19948722
0.25846335
0.21943447
0.30728423
0.23538496
0.25310602
0.24197172
0.1039155
0.23602245
-0.081021619
0.21925417
-0.22246118
0.19720482
-0.27643506
0.17778936
-0.23139021
0.16938259
-0.078815272
0.17610549
0.18488976
0.32423543
0.29117479
0.0016090637
-0.2902059
0.29181715
-0.0021401333
0.29199528
-0.0064315887
0.29153437
-0.01144066
0.29025124
-0.017200236
0.28796306
-0.023659299
0.28452117
-0.030685694
0.27984953
-0.038062336
0.27396682
-0.045489758
0.26698527
-0.052611115
0.25909112
-0.059050424
0.25051261
-0.064447178
0.24148399
-0.068476337
0.23221599
-0.070848413
0.22288344
-0.071287662
0.2136266
-0.069491835
0.20456242
-0.065091961
0.19590187
-0.057579381
0.18805503
-0.046149292
0.1811347
-0.029965566
0.17491171
-0.0092236447
0.17090056
0.015151076
0.17286689
0.043551824
0.18267105
0.077075941
0.19827085
0.11376439
0.21680667
0.14710902
0.23736568
0.16464433
0.25961712
0.14716862
0.27927454
0.081798627
0.28760723
-0.015225862
0.27992889
-0.10322679
0.26156157
-0.15358482
0.24123694
-0.16897274
0.22300508
-0.16618216
0.20592346
-0.15673263
0.18990945
-0.13886044
0.1800389
-0.093458132
0.18212872
-0.00099997674
0.19603169
0.12507701
0.21680307
0.23769196
0.23876699
0.28532031
0.25607665
0.23579637
0.26277671
0.097215438
0.25579087
-0.074035786
0.23745462
-0.20412493
0.21384913
-0.25282958
0.19311129
-0.21065237
0.18407464
-0.069778615
0.19199686
0.17696754
0.31276461
0.30595321
0.00088802195
-0.30523217
0.30631656
-0.0025034849
0.30623155
-0.0063465758
0.30555458
-0.01076369
0.30413434
-0.015780006
0.30182471
-0.021349668
0.29850561
-0.02736659
0.29410821
-0.033664936
0.28863386
-0.04001541
0.28215811
-0.046135366
0.27482013
-0.051712444
0.26680217
-0.056429218
0.25830493
-0.059979091
0.24952591
-0.0620694
0.24064855
-0.062410299
0.23184635
-0.060689633
0.22329517
-0.056540783
0.21522714
-0.049511354
0.20807547
-0.038997613
0.20235264
-0.02424274
0.19808291
-0.0049539179
0.19520414
0.018029844
0.19543185
0.043324117
0.20148279
0.071025001
0.21427204
0.10097514
0.23271686
0.1286642
0.25578346
0.14157772
0.28138237
0.12156972
0.30230054
0.060880463
0.30877107
-0.0216964
0.29852797
-0.09298369
0.27901018
-0.13406703
0.25862713
-0.14858969
0.24049726
-0.14805229
0.22349603
-0.1397314
0.20733436
-0.12269877
0.19680173
-0.082925507
0.1983898
-0.0025880486
0.21290684
0.11055997
0.23537201
0.2152268
0.25928689
0.26140543
0.27784442
0.21723883
0.28456264
0.090497221
0.2765599
-0.06603305
0.25681807
-0.1843831
0.23189535
-0.22790685
0.21005963
-0.18881665
0.20049725
-0.060216241
0.2096803
0.1677845
0.29898537
0.3216391
0.0003763727
-0.32112745
0.32178276
-0.0026471471
0.32149144
-0.0060552568
0.32065032
-0.0099225718
0.31913708
-0.014266761
0.31683579
-0.019048376
0.31365078
-0.024181578
0.30952239
-0.029536554
0.30444173
-0.034934751
0.29845745
-0.040151081
0.29167214
-0.044927138
0.28423071
-0.048987782
0.27630477
-0.052053154
0.26807814
-0.053842769
0.25973856
-0.054070721
0.25148109
-0.052432165
0.24352353
-0.048583219
0.23613566
-0.042123488
0.22972664
-0.032588589
0.2249281
-0.019444201
0.22224394
-0.0022697577
0.22158413
0.018689652
0.22293935
0.041968891
0.22772126
0.066243096
0.23817468
0.090521716
0.25582452
0.11101436
0.28036254
0.1170397
0.30718341
0.094748849
0.32622741
0.041836461
0.32889563
-0.024364616
0.31630573
-0.080393791
0.29669519
-0.11445649
0.27697436
-0.12886886
0.25926295
-0.13034088
0.2425921
-0.12306055
0.22660365
-0.10671032
0.21552173
-0.071843582
0.21630009
-0.0033664146
0.23100739
0.095852679
0.25491574
0.19131844
0.28063702
0.23568416
0.30030575
0.1975701
0.30697392
0.083829042
0.29809249
-0.057151612
0.27726218
-0.16355279
0.25138652
-0.20203119
0.22876999
-0.16620012
0.21883502
-0.050281273
0.22929615
0.15732337
0.28270994
0.33833665
7.4799977e-05
-0.33803508
0.33831738
-0.0026278775
0.33787543