/*--------------------------------*- C++ -*----------------------------------*\
| =========                 |                                                 |
| \\      /  F ield         | OpenFOAM: The Open Source CFD Toolbox           |
|  \\    /   O peration     | Version:  2406                                  |
|   \\  /    A nd           | Website:  www.openfoam.com                      |
|    \\/     M anipulation  |                                                 |
\*---------------------------------------------------------------------------*/
FoamFile
{
    version     2.0;
    format      ascii;
    arch        "LSB;label=32;scalar=64";
    class       volVectorField;
    location    "30";
    object      U;
}
// * * * * * * * * * * * * * * * * * * * * * * * * * * * * * * * * * * * * * //

dimensions      [0 1 -1 0 0 0 0];

internalField   nonuniform List<vector> 
9200
(
(-0.015678472 0.011848292 -3.8413814e-20)
(-0.034094621 0.01642321 8.3670773e-21)
(-0.036390484 0.014199418 -1.9706845e-20)
(-0.020234599 0.0096795435 -5.454802e-20)
(0.018219802 0.0060116361 1.1021496e-20)
(0.082253203 0.0045876419 3.9935161e-20)
(0.17364799 0.0060966474 -1.2136503e-20)
(0.29132984 0.010926829 1.1344846e-20)
(0.43031719 0.019064256 3.7876533e-20)
(0.58182522 0.030041115 3.0126925e-21)
(0.7348592 0.042913826 -3.9901573e-20)
(0.8785153 0.056350415 3.3838104e-20)
(1.0040486 0.0688439 -5.6507886e-20)
(1.1061201 0.078981101 -2.3352786e-20)
(1.1830755 0.085675291 4.3974233e-21)
(1.2364267 0.088300123 -1.3643404e-20)
(1.2698457 0.086703803 9.4521901e-21)
(1.2880189 0.081149872 1.8568727e-20)
(1.2955809 0.072071183 1.128258e-20)
(1.2965509 0.060800116 1.5632034e-20)
(-0.020137996 0.014718227 -1.3278887e-20)
(-0.032881 0.02162614 5.4178283e-21)
(-0.018229211 0.020160838 2.1050935e-20)
(0.024639083 0.015980133 -9.4213595e-20)
(0.09829614 0.012976195 -1.0695716e-20)
(0.20391634 0.013284204 9.5373135e-20)
(0.33893726 0.017952805 -4.882268e-20)
(0.495498 0.027110106 -1.4155847e-20)
(0.66109354 0.039974307 5.9007265e-20)
(0.82138604 0.055015675 -7.4583167e-20)
(0.96368348 0.070304772 -5.3337112e-20)
(1.0795441 0.083942052 1.1698678e-19)
(1.1657716 0.094428409 5.1595528e-20)
(1.2238898 0.10087714 -8.1669549e-20)
(1.2586465 0.1030411 1.6031222e-20)
(1.2762057 0.10119294 -3.1288157e-20)
(1.2825735 0.095932714 -3.4998168e-21)
(1.2825656 0.087996377 5.3625718e-20)
(1.2794193 0.07809271 2.3409036e-20)
(1.2748718 0.067157485 -5.8227232e-20)
(-0.021130929 0.014101261 4.7346322e-20)
(-0.022331832 0.020251973 1.6229713e-20)
(0.01588176 0.019308405 3.0539607e-20)
(0.09279659 0.017185155 7.775229e-22)
(0.2082243 0.018098193 -3.6674405e-20)
(0.35789575 0.024307225 2.2658267e-20)
(0.53084053 0.03622064 1.1902209e-20)
(0.71040838 0.052564304 -6.957083e-20)
(0.87856839 0.070934142 8.8226396e-20)
(1.0208079 0.088600822 3.152552e-20)
(1.1292378 0.10325733 -9.240308e-20)
(1.2030798 0.11347831 -3.2750107e-20)
(1.2470458 0.11882071 -5.2437984e-22)
(1.2687173 0.11963562 2.9703562e-20)
(1.2760148 0.11673695 -1.4768734e-20)
(1.2754598 0.11107153 2.6374178e-20)
(1.2714526 0.10348953 -1.3471206e-20)
(1.2663692 0.094630321 -6.1387969e-20)
(1.2611388 0.084942288 -3.326597e-20)
(1.2557623 0.074782876 2.509359e-20)
(-0.018146156 0.011092124 3.9778971e-20)
(-0.00052696178 0.014246863 3.8177206e-20)
(0.068973625 0.014092243 1.3755573e-20)
(0.18704098 0.016692831 3.0265427e-21)
(0.34723597 0.025681395 1.3698133e-20)
(0.5353349 0.041914896 -5.1091464e-20)
(0.72998641 0.063477146 -3.3250287e-20)
(0.90864575 0.086735765 0)
(1.0543283 0.10787214 4.705084e-20)
(1.1593871 0.12410183 -2.6236041e-20)
(1.2253389 0.1342021 -1.452761e-19)
(1.2598936 0.13837792 -1.5015559e-20)
(1.2730819 0.13773386 9.0680841e-20)
(1.2740804 0.13367024 -6.8691172e-21)
(1.2695218 0.12743474 -1.7328547e-21)
(1.2632447 0.11991391 2.2251444e-20)
(1.2569288 0.11163095 -7.6754515e-21)
(1.2509708 0.10283759 -5.099798e-20)
(1.2452246 0.093683716 -3.9219911e-20)
(1.2392645 0.084186656 5.685846e-20)
(-0.010649662 0.0067821735 -1.9072334e-20)
(0.03475259 0.0065954243 -4.1409782e-20)
(0.14403646 0.0093743723 5.2728486e-20)
(0.30786457 0.020691848 7.2765732e-21)
(0.50866663 0.041789707 -2.5749689e-20)
(0.71986419 0.069949772 1.3083378e-20)
(0.91307015 0.099869205 3.6726587e-21)
(1.0673621 0.12613245 5.8223204e-20)
(1.1743141 0.14517986 9.2403847e-21)
(1.2372325 0.15596528 -2.8671985e-20)
(1.2665988 0.15946426 1.0370994e-19)
(1.2747331 0.15765244 -7.1261479e-20)
(1.2719382 0.15255638 -1.6416049e-19)
(1.264936 0.14570461 -6.4500864e-21)
(1.2571445 0.13800145 9.187096e-20)
(1.2497939 0.12986318 0)
(1.2430323 0.12143344 7.4021344e-21)
(1.2366338 0.11274251 -1.5033217e-20)
(1.2303396 0.10385463 -6.0690491e-21)
(1.22381 0.094680555 1.8638041e-20)
(0.0023421642 0.0020631545 -4.7199177e-20)
(0.085549248 0.00055326625 3.315035e-21)
(0.2416184 0.010326857 -7.8402742e-21)
(0.45002328 0.034744405 3.9859858e-20)
(0.67860705 0.069938349 -3.0736241e-20)
(0.8913885 0.10823024 -2.2748133e-20)
(1.0610548 0.14176762 4.1977299e-20)
(1.1764287 0.16554551 2.5136186e-21)
(1.2416089 0.17839649 -5.1432937e-20)
(1.2696317 0.18208153 1.0300005e-19)
(1.275263 0.17957747 -7.3347104e-21)
(1.2701918 0.17364122 -1.0918557e-19)
(1.2615053 0.16613667 0)
(1.2524717 0.15802555 4.7810401e-20)
(1.244106 0.14967127 6.7915367e-21)
(1.2364611 0.14115764 -7.9334116e-20)
(1.2293265 0.13249243 -1.8491159e-20)
(1.2224759 0.12368259 -1.2132915e-20)
(1.2157242 0.11479815 -1.3417506e-20)
(1.208832 0.10571286 3.510821e-20)
(0.021886471 -0.002080579 -4.202501e-20)
(0.15260592 -0.00070706384 7.8996246e-20)
(0.35835742 0.021280397 5.7434594e-20)
(0.60264441 0.061862962 7.8224697e-20)
(0.84012624 0.10981141 -2.9479557e-20)
(1.0335282 0.15322915 -1.0833696e-19)
(1.1655831 0.18440694 -5.0062904e-20)
(1.2393364 0.20135095 1.2663642e-19)
(1.2700195 0.20644914 1.9128426e-20)
(1.2753069 0.20384298 -3.2197369e-20)
(1.2689316 0.19724323 1.3127065e-20)
(1.2588851 0.18900944 -7.0446629e-21)
(1.2486418 0.18025858 0)
(1.2391994 0.1713662 2.916903e-20)
(1.2306004 0.16240439 -8.1445415e-20)
(1.2226649 0.15337773 -3.0651855e-20)
(1.2152044 0.14430093 7.7451706e-20)
(1.2080409 0.13520035 -2.3025995e-21)
(1.2010175 0.12613624 3.6790222e-21)
(1.1939768 0.11697161 2.3167684e-20)
(0.048615796 -0.0043706132 -5.9587688e-20)
(0.23451697 0.0059116484 -3.0765019e-20)
(0.48694486 0.045099315 5.9404364e-20)
(0.75222386 0.10215574 9.4429934e-20)
(0.97890058 0.15835245 1.0645604e-19)
(1.1383218 0.20058188 -1.279041e-19)
(1.2290266 0.22456006 2.714264e-21)
(1.2674699 0.23284477 1.4437531e-19)
(1.2748597 0.23091263 7.3461955e-20)
(1.2680488 0.2238106 -7.6347965e-20)
(1.2567918 0.21470505 -1.1794085e-19)
(1.2452537 0.20504146 -3.7347278e-21)
(1.2346205 0.19528725 4.6603756e-20)
(1.2249782 0.18553698 -7.4388091e-21)
(1.2161721 0.1758063 -1.3799257e-20)
(1.2080384 0.16611735 2.0369167e-20)
(1.2004085 0.15649899 4.1636074e-20)
(1.1931046 0.14697741 -4.1481713e-20)
(1.1859853 0.13758439 -9.426486e-20)
(1.1789805 0.12820876 2.133457e-20)
(0.082297574 -0.0032998139 -2.3415849e-21)
(0.32726931 0.023074994 -2.3837629e-19)
(0.61742144 0.082779729 4.0404649e-20)
(0.8862207 0.15346044 1.5809336e-19)
(1.0865271 0.21161146 1.2221343e-19)
(1.2060845 0.24708149 1.6918772e-20)
(1.2599205 0.2613559 -2.0114365e-19)
(1.2731261 0.2613354 0)
(1.2671801 0.25398065 -1.0100653e-19)
(1.2549293 0.2438005 -1.9736657e-20)
(1.2419798 0.23287406 6.8032609e-20)
(1.2300032 0.22188179 1.2421387e-20)
(1.2192009 0.21097451 -4.9507142e-20)
(1.2094351 0.20018447 -5.0958419e-20)
(1.2005499 0.18953983 2.3920756e-20)
(1.1923876 0.179072 4.2909579e-20)
(1.1847615 0.16880204 -5.2291428e-20)
(1.1774825 0.15874289 -1.0006738e-19)
(1.170437 0.14889564 -3.283433e-21)
(1.1636326 0.13920765 2.450323e-20)
(0.12175648 0.002670919 2.3997837e-20)
(0.42483826 0.052600094 5.7221144e-20)
(0.73954188 0.13345168 -1.5242261e-19)
(0.99577129 0.21236086 -1.3927385e-19)
(1.1608733 0.26608877 1.0023237e-19)
(1.2422834 0.29119369 1.2372144e-19)
(1.2678521 0.29544752 1.0391731e-20)
(1.2653663 0.28849298 -1.7175471e-19)
(1.2527779 0.27706823 -3.7160128e-21)
(1.2383974 0.26444068 6.5577928e-20)
(1.2249261 0.25173771 6.7437745e-21)
(1.2128336 0.23922869 -2.4047144e-20)
(1.2020138 0.2269677 -8.1900694e-20)
(1.1922964 0.21498476 -6.3560852e-21)
(1.1835265 0.20330824 4.341138e-20)
(1.1755273 0.19195816 3.596955e-20)
(1.1680849 0.18093759 1.8995384e-20)
(1.1610031 0.1702411 -4.8974594e-20)
(1.1542041 0.15984378 1.2474815e-20)
(1.1477468 0.14976685 7.4836663e-20)
(0.0019896891 -0.10902442 -1.0296864e-19)
(-0.0131702 -0.1939645 2.0039701e-21)
(-0.039460337 -0.21052055 -2.4408492e-19)
(-0.071446716 -0.19504614 7.9890605e-20)
(-0.10482949 -0.16678215 2.0387629e-20)
(-0.13791031 -0.13268471 1.5548309e-19)
(-0.16966256 -0.093422815 1.2346944e-19)
(-0.19939442 -0.047739969 -2.5073436e-19)
(-0.22616683 0.0055825064 -3.3672043e-20)
(-0.24938821 0.066800708 1.9281388e-20)
(-0.26887071 0.1354675 -1.3811984e-19)
(-0.28388253 0.21046938 -1.5795494e-19)
(-0.2939292 0.2899421 -7.6090966e-20)
(-0.29850586 0.37134687 5.7424759e-20)
(-0.29708134 0.45152527 1.1243381e-19)
(-0.28912317 0.52678058 -5.61798e-20)
(-0.27404758 0.5930097 -1.1014071e-19)
(-0.25096086 0.64586476 9.806667e-20)
(-0.21850573 0.68101146 -9.6832327e-20)
(-0.17603077 0.69450293 -3.7288534e-20)
(0.0079009275 -0.093978969 9.2602109e-20)
(-0.005443616 -0.1630236 7.24633e-21)
(-0.032961439 -0.17173255 1.8235471e-19)
(-0.067490331 -0.15262625 -1.0259785e-19)
(-0.10389373 -0.12303793 -4.6163734e-20)
(-0.14023612 -0.089316166 -1.6870684e-21)
(-0.17537295 -0.051929407 -4.8847329e-20)
(-0.20816884 -0.0095148991 5.3980951e-20)
(-0.2378204 0.039165605 -1.0064363e-19)
(-0.26357634 0.09434508 -2.7665305e-21)
(-0.28434299 0.15583412 5.7194884e-20)
(-0.29908601 0.22250328 9.406533e-21)
(-0.30675021 0.29248276 2.6064739e-19)
(-0.3062255 0.36319529 2.703526e-20)
(-0.29634568 0.43139255 -4.9365627e-20)
(-0.27591323 0.49323418 -4.586803e-20)
(-0.24376348 0.54444855 -6.9768916e-20)
(-0.19875973 0.58058557 -5.7760342e-20)
(-0.13965812 0.59731736 6.6435527e-21)
(-0.064995118 0.59072013 1.0936236e-20)
(0.011830137 -0.077319347 4.2020489e-20)
(0.0010867388 -0.13116352 -1.7866857e-21)
(-0.025152338 -0.1332657 1.7068358e-21)
(-0.058679886 -0.11126684 -3.8394216e-20)
(-0.093861434 -0.080524887 -7.7729995e-20)
(-0.12850901 -0.047144929 -1.4753207e-19)
(-0.16136375 -0.011805014 -7.0354866e-21)
(-0.19130827 0.026765214 2.0588071e-19)
(-0.21724626 0.069680922 -2.9525348e-20)
(-0.23803877 0.11749921 3.3024128e-20)
(-0.25237327 0.16989835 -1.7124882e-19)
(-0.25886808 0.22578409 1.8853127e-19)
(-0.25608934 0.2833452 4.8353272e-21)
(-0.24259482 0.34008478 -1.9112352e-19)
(-0.21699236 0.39288906 -8.5213774e-20)
(-0.17801716 0.43817213 -1.6858906e-19)
(-0.1246876 0.47212797 7.9060752e-20)
(-0.056372315 0.49070822 -1.2673093e-19)
(0.026709108 0.49041448 -1.0592995e-19)
(0.12616201 0.46860215 -2.891303e-20)
(0.013912268 -0.061469983 3.7033868e-20)
(0.0059541378 -0.10212125 9.5463736e-20)
(-0.017486583 -0.099267636 -3.1385259e-20)
(-0.047579786 -0.075477871 -2.2815437e-20)
(-0.078358821 -0.044084188 -2.2218719e-20)
(-0.107417 -0.011192255 2.7899698e-20)
(-0.13346055 0.02200565 3.4419755e-20)
(-0.15535186 0.056468943 -4.8942187e-20)
(-0.17190872 0.093309995 -8.0946302e-20)
(-0.18184488 0.13305807 -3.7647465e-20)
(-0.18378355 0.1754554 -6.3134943e-20)
(-0.17629932 0.21951551 1.4262308e-19)
(-0.15798168 0.26362108 -1.5389643e-19)
(-0.12752318 0.30559033 -2.9484083e-20)
(-0.083764042 0.34272145 7.0905532e-20)
(-0.025848158 0.37186637 -1.655679e-20)
(0.046386144 0.3899603 8.7476968e-20)
(0.13240306 0.39404024 1.0941788e-19)
(0.23023398 0.38188308 -1.2379702e-19)
(0.34045867 0.35286012 -1.507633e-19)
(0.014441832 -0.047656917 5.2544087e-22)
(0.0085283278 -0.077823293 5.2497725e-20)
(-0.01196586 -0.072200106 1.1323329e-19)
(-0.037818308 -0.048552314 -2.3729418e-20)
(-0.062803356 -0.018007624 7.514766e-20)
(-0.084285049 0.013525804 2.6947651e-20)
(-0.10093873 0.044247623 -8.8565858e-20)
(-0.11177894 0.07449789 -1.60585e-19)
(-0.11577639 0.10517023 1.3370905e-19)
(-0.11179728 0.13681141 1.1420494e-19)
(-0.09866915 0.16931282 8.1650061e-20)
(-0.075234553 0.20191242 8.831492e-20)
(-0.040398509 0.23325232 0)
(0.0066205175 0.26153177 2.5401466e-20)
(0.066291162 0.28456885 -9.7777801e-21)
(0.13853478 0.30002303 2.0950846e-20)
(0.22243752 0.30574829 -6.4171058e-20)
(0.31631633 0.30010592 2.5278928e-20)
(0.4173176 0.28222417 -9.6504634e-20)
(0.52584931 0.25217677 1.0048536e-19)
(0.013510111 -0.035823547 2.226759e-20)
(0.0079420416 -0.058153472 -6.2199466e-20)
(-0.010679348 -0.052248279 8.4950411e-21)
(-0.032995552 -0.031458559 3.4354631e-20)
(-0.052604158 -0.0044262739 1.0881155e-19)
(-0.066644018 0.023647002 -1.3297201e-20)
(-0.073819233 0.050530894 -6.4133151e-20)
(-0.073370416 0.075923179 9.4269822e-20)
(-0.064631074 0.10029474 1.8302902e-19)
(-0.04686971 0.12407827 3.3731263e-20)
(-0.01934558 0.14725725 -5.234597e-20)
(0.018587098 0.16932518 -6.2536508e-20)
(0.067347352 0.18937268 -9.4898367e-20)
(0.12696026 0.20622692 -2.3489292e-20)
(0.19707265 0.21853312 -3.1965118e-20)
(0.27702733 0.22493758 3.0318838e-20)
(0.3655417 0.2241093 1.2704657e-20)
(0.46279267 0.21484814 -4.5670489e-20)
(0.56836763 0.19566533 -1.2428976e-19)
(0.68862145 0.16581312 -1.9738351e-20)
(0.010834835 -0.025071335 -3.6226385e-20)
(0.0033037571 -0.041459644 -3.2299511e-20)
(-0.01500756 -0.037459951 -8.4353755e-20)
(-0.03508714 -0.022282553 8.6387306e-21)
(-0.050595698 -0.0018687476 6.1300082e-22)
(-0.058606498 0.019742678 -1.4370454e-19)
(-0.057846199 0.040422902 5.083117e-21)
(-0.047743838 0.05948675 7.72828e-20)
(-0.027946574 0.077001913 6.4401777e-20)
(0.0018319105 0.093219698 -1.20684e-19)
(0.041856641 0.10830142 -1.2884581e-19)
(0.092429523 0.12217121 7.6036944e-20)
(0.15370526 0.13442131 7.9012333e-20)
(0.22627762 0.14434571 -4.1969011e-20)
(0.31118199 0.15097715 -3.4276231e-21)
(0.40904756 0.15305296 -1.4309233e-20)
(0.52026253 0.14913065 -1.5697295e-20)
(0.64297239 0.13794846 3.5334679e-20)
(0.77283456 0.11846337 1.3426786e-20)
(0.90963403 0.093495442 -8.7309089e-20)
(0.006003832 -0.01449319 -1.179584e-20)
(-0.005558445 -0.025714958 9.300028e-21)
(-0.024378485 -0.024743023 -3.7504382e-20)
(-0.042510919 -0.016768939 2.4817831e-20)
(-0.054066682 -0.0049893152 -3.6463888e-20)
(-0.056193663 0.0080337523 3.1913774e-20)
(-0.047493462 0.020759614 2.0677235e-20)
(-0.027241446 0.032614594 -7.4540387e-20)
(0.0051658438 0.043576231 1.2708329e-20)
(0.050323205 0.0538902 1.0847807e-19)
(0.10938306 0.06381433 2.5712876e-20)
(0.18362614 0.073325353 -2.6327743e-20)
(0.27413363 0.082040989 -4.7095636e-20)
(0.38073475 0.089218882 -4.3573537e-20)
(0.50131135 0.093907458 8.0403538e-22)
(0.63199759 0.095143801 1.0511785e-20)
(0.7673505 0.092100648 -3.2072011e-20)
(0.90077054 0.084272714 -3.2233556e-20)
(1.0257085 0.071462135 9.5124405e-20)
(1.1373219 0.056911857 -1.7651859e-20)
(-0.00089627055 -0.0040094026 -1.0278376e-20)
(-0.01710795 -0.0098704537 3.5328655e-21)
(-0.035065107 -0.011520534 1.4680162e-20)
(-0.048607328 -0.01023325 -1.5956485e-20)
(-0.052527731 -0.0065864232 -4.2425227e-21)
(-0.043837539 -0.0015694456 7.9027019e-20)
(-0.020439732 0.0041735559 -3.794518e-20)
(0.019410678 0.010447226 6.2740895e-20)
(0.077415926 0.017306605 4.2973737e-20)
(0.15504148 0.024946304 -3.691943e-20)
(0.2524005 0.033386468 6.6416802e-21)
(0.36764799 0.042397588 -5.0693275e-20)
(0.49679475 0.05148802 1.4709014e-20)
(0.63400188 0.059923785 1.2134797e-20)
(0.77234984 0.066791936 -5.5086847e-21)
(0.90478093 0.071106744 6.0747607e-22)
(1.0249572 0.07196559 4.7645897e-21)
(1.1278787 0.068715196 -2.1646125e-20)
(1.2108162 0.06119026 1.096833e-20)
(1.2716959 0.051072657 3.2490051e-20)
(-0.0087335767 0.0052936513 1.5864039e-21)
(-0.027890253 0.0050635389 6.3712197e-21)
(-0.040900944 0.0023771988 -8.7557054e-21)
(-0.043644026 -0.00061240936 -1.093647e-20)
(-0.031510601 -0.002261744 4.6190889e-20)
(-0.0010976067 -0.0021331411 4.5612215e-21)
(0.050446597 -0.0001311099 -7.4238396e-20)
(0.12524329 0.0038094468 2.6873627e-20)
(0.22362504 0.0098720121 9.0424913e-21)
(0.34324272 0.018034259 -6.1093506e-20)
(0.47882379 0.028027525 2.2831507e-21)
(0.6227366 0.039252937 -6.4379471e-20)
(0.76623708 0.050765327 -5.0709519e-20)
(0.90092604 0.061379992 6.0082691e-20)
(1.0199867 0.069860052 2.9577539e-21)
(1.1189536 0.075118903 -6.0813937e-21)
(1.1959512 0.076391031 -7.9143882e-22)
(1.2514791 0.073326699 -1.0141129e-22)
(1.2880009 0.066009583 -6.9881408e-21)
(1.3080834 0.055176166 1.4304634e-20)
(-0.11486557 0.67988029 -2.9441891e-20)
(-0.025645291 0.6185819 -8.4359997e-20)
(0.086794344 0.50338065 2.5086223e-19)
(0.21030003 0.3464366 1.7091243e-20)
(0.33147674 0.16275347 0)
(0.44108584 -0.03580385 0)
(0.53659429 -0.23961606 -7.6950622e-21)
(0.61871935 -0.43323824 -2.4593807e-20)
(0.68363013 -0.59005863 1.5483152e-19)
(0.72516848 -0.68551047 1.2201276e-19)
(0.74178256 -0.71574651 -6.6555523e-22)
(0.7382737 -0.69951927 -2.9683197e-20)
(0.72272362 -0.66319412 1.1328058e-20)
(0.70081391 -0.63025396 3.0284957e-20)
(0.66841163 -0.61998969 5.3985177e-20)
(0.62107836 -0.62301434 -2.8893376e-20)
(0.58193726 -0.57112363 -2.5068819e-20)
(0.58717077 -0.39135275 -1.2933662e-19)
(0.63824403 -0.099549412 4.6608276e-20)
(0.71040019 0.21172169 6.7416918e-21)
(0.77932346 0.4476286 -3.0789702e-20)
(0.82841381 0.5665771 7.5646971e-20)
(0.85151893 0.58928368 3.8929032e-20)
(0.85415973 0.56848895 -9.4940252e-21)
(0.84332827 0.55425551 -8.0728701e-22)
(0.82052018 0.56327415 2.7817989e-21)
(0.79232548 0.55037144 -1.3207612e-20)
(0.77724514 0.43180082 -4.7242002e-20)
(0.78689581 0.17643342 -7.2016617e-20)
(0.81128871 -0.1422805 2.1355677e-20)
(0.83589433 -0.40226462 -8.3073946e-20)
(0.85425254 -0.530033 -6.8701492e-21)
(0.85781489 -0.54918805 -2.8944308e-21)
(0.83858801 -0.53002015 -2.1006438e-20)
(0.80389814 -0.48717052 1.6612948e-21)
(0.77976974 -0.35891208 -1.0304582e-20)
(0.78503764 -0.11157825 2.0511809e-20)
(0.80719681 0.18271896 3.8678852e-20)
(0.82561796 0.4093637 4.2548573e-20)
(0.82926961 0.51316486 1.1456482e-20)
(0.81493114 0.50202068 -6.5822871e-21)
(0.80241136 0.37497474 1.8895306e-20)
(0.81360247 0.13087671 -9.732893e-22)
(0.83238207 -0.15915895 -7.2299303e-20)
(0.83096641 -0.38085707 -4.814779e-20)
(0.80483822 -0.45818599 -6.093223e-21)
(0.77822031 -0.36240309 -1.9809584e-20)
(0.77082968 -0.12198229 2.5746736e-20)
(0.77779514 0.18379276 1.9676674e-20)
(0.73480621 0.29324079 -5.9720459e-20)
(0.02826769 0.56124715 5.6875693e-20)
(0.14298095 0.48623648 2.242032e-19)
(0.26961152 0.36907256 9.4872602e-20)
(0.39539669 0.2219885 -1.1097434e-19)
(0.51007231 0.055876349 -1.7846308e-20)
(0.60914593 -0.12265751 -3.9277139e-20)
(0.69439942 -0.30893897 3.4941003e-20)
(0.76467063 -0.4859106 1.6026522e-19)
(0.8115733 -0.62348074 1.707096e-21)
(0.82848552 -0.69828107 -5.7357078e-20)
(0.81849509 -0.71118791 -9.3522948e-20)
(0.79164162 -0.68429874 -2.9334553e-20)
(0.75786498 -0.64329668 5.0672273e-20)
(0.72284683 -0.60620625 -5.0078907e-20)
(0.68262694 -0.58801758 -5.1544194e-20)
(0.62653455 -0.58897402 5.0480656e-21)
(0.56737481 -0.55610533 2.1435361e-20)
(0.54775874 -0.40861568 5.5523288e-20)
(0.5826433 -0.14131653 -1.5229635e-20)
(0.64989943 0.16147444 7.2562912e-20)
(0.72443478 0.40442347 8.801441e-20)
(0.7868103 0.53937936 -6.3462355e-20)
(0.82597929 0.57798653 -5.9263041e-20)
(0.84276184 0.5679737 -7.0391295e-21)
(0.84291458 0.56010255 -4.2153223e-21)
(0.83125673 0.57196182 1.5138201e-21)
(0.81737068 0.55749016 3.558979e-21)
(0.81706096 0.43447803 1.1056419e-20)
(0.83634075 0.17506659 1.475377e-20)
(0.86111359 -0.14605501 -3.2473718e-20)
(0.87690872 -0.4065385 2.2629319e-20)
(0.88135694 -0.5314048 -5.1662259e-21)
(0.87151531 -0.54416107 5.5538101e-21)
(0.84129569 -0.51917056 1.4996369e-20)
(0.79542388 -0.47663455 -4.3070737e-21)
(0.7592263 -0.35558459 7.098624e-20)
(0.75652688 -0.11654932 -7.4994582e-20)
(0.77951634 0.17396901 6.0814313e-20)
(0.80632339 0.40293166 -7.5915157e-20)
(0.82125189 0.51223142 1.0156302e-21)
(0.81907369 0.50406569 2.8492736e-21)
(0.81847045 0.37508569 2.0731987e-20)
(0.83693801 0.12871658 4.9926067e-20)
(0.85512481 -0.15958819 4.0297854e-20)
(0.84696565 -0.37684256 1.8304723e-20)
(0.81083263 -0.45179602 -1.9416525e-21)
(0.77324125 -0.35825007 -5.837912e-20)
(0.75892556 -0.12091463 -1.0720163e-19)
(0.76507371 0.18590717 -3.4418111e-21)
(0.73074697 0.29722283 1.5756358e-20)
(0.23470816 0.43059737 -5.1623818e-20)
(0.3496861 0.35703057 -2.515022e-20)
(0.46873278 0.25040067 7.3746538e-20)
(0.58170221 0.12129282 1.2012158e-20)
(0.68154805 -0.02350755 -2.8567161e-20)
(0.76892007 -0.18357239 -1.8618122e-20)
(0.84577945 -0.35421677 -1.0108369e-19)
(0.90448078 -0.51376234 7.1162433e-20)
(0.93199341 -0.63102331 1.2119419e-19)
(0.92398693 -0.68718128 -7.8122225e-20)
(0.88954299 -0.68805383 6.5679644e-21)
(0.84309919 -0.65645259 6.7823647e-20)
(0.79497449 -0.61528248 -2.6678621e-20)
(0.74929968 -0.57747032 -6.9113241e-20)
(0.70298524 -0.55252137 -2.6114089e-20)
(0.64317169 -0.54729674 9.1817839e-20)
(0.56990024 -0.52964818 8.0166785e-20)
(0.52403127 -0.42036441 1.1056561e-19)
(0.53852473 -0.18772966 -2.4515156e-19)
(0.59802784 0.10076426 -9.1653317e-20)
(0.67520047 0.34899843 1.7715986e-20)
(0.74814185 0.50086702 -1.3034075e-20)
(0.80189093 0.5578245 2.3868137e-20)
(0.83254894 0.56093368 1.2871127e-20)
(0.84413386 0.56008521 -2.5589696e-21)
(0.84416112 0.57441637 -4.3776198e-21)
(0.84461001 0.55973351 -2.2132604e-20)
(0.85868368 0.43670994 2.5076503e-20)
(0.88707814 0.17890851 -1.2619616e-20)
(0.91247707 -0.14127726 4.1719565e-21)
(0.92031015 -0.40227188 -3.6412599e-21)
(0.91120366 -0.5264323 7.4612367e-21)
(0.88803503 -0.53509542 -2.413956e-20)
(0.84757656 -0.50529567 6.4450898e-20)
(0.7918461 -0.46354439 -3.3839096e-20)
(0.74422091 -0.35148598 -6.2951854e-20)
(0.73299267 -0.1237542 2.7262205e-20)
(0.75578659 0.16096426 4.9196765e-20)
(0.79000976 0.39198106 3.0005555e-20)
(0.81578324 0.50754074 -1.7757154e-20)
(0.82584528 0.50342619 4.9147414e-22)
(0.83698763 0.37415345 2.3331426e-20)
(0.8620989 0.12753026 -1.9905994e-20)
(0.87932478 -0.15777984 2.3104574e-21)
(0.8645947 -0.37033104 -2.1531828e-21)
(0.81897961 -0.44320187 8.9388107e-21)
(0.77074139 -0.35266699 4.506454e-20)
(0.74940806 -0.1196659 -2.3364869e-19)
(0.75464903 0.1870823 2.7548957e-21)
(0.72935269 0.30028181 3.4396747e-20)
(0.44865068 0.31392177 -1.2086756e-20)
(0.54999385 0.24946982 1.5320977e-20)
(0.65164214 0.15867918 4.2872798e-21)
(0.74779333 0.048663408 4.3073005e-20)
(0.83566578 -0.079059303 2.5272565e-21)
(0.91738772 -0.22550292 -2.6337592e-20)
(0.98820538 -0.38082532 4.5711888e-20)
(1.0331839 -0.52006754 7.4095437e-20)
(1.0391743 -0.61582701 9.7299875e-20)
(1.007554 -0.65629709 -6.851698e-21)
(0.9529706 -0.65072877 -3.9049202e-20)
(0.89192217 -0.6197111 6.9519598e-21)
(0.83366687 -0.5817531 -4.6981869e-20)
(0.78009114 -0.54593183 6.8313321e-21)
(0.72883282 -0.51676654 5.1072467e-20)
(0.66900184 -0.5026796 7.5068574e-20)
(0.59021363 -0.49211611 -4.0511781e-20)
(0.52071333 -0.42048592 1.1308794e-20)
(0.50920661 -0.23196221 1.2309126e-19)
(0.55602276 0.033432641 -5.8181147e-20)
(0.6322334 0.28304284 -8.4392859e-20)
(0.71260813 0.45147375 6.4199145e-20)
(0.7788861 0.52849007 -1.9872266e-20)
(0.82273145 0.54683051 1.8279135e-20)
(0.84587382 0.5538819 6.3269957e-20)
(0.8575447 0.57072218 2.9409371e-20)
(0.87164273 0.5573645 8.9335115e-21)
(0.89910103 0.43847188 -4.6575433e-22)
(0.93612257 0.18713848 2.978729e-20)
(0.96309807 -0.12899278 2.5267386e-20)
(0.96472292 -0.39020123 5.0577109e-21)
(0.94322367 -0.51554163 9.0918754e-21)
(0.90718328 -0.52241909 1.4037332e-20)
(0.85734828 -0.48893935 2.3998527e-20)
(0.79333387 -0.44821444 2.8001547e-21)
(0.73535624 -0.34629388 9.3646762e-20)
(0.71518908 -0.13248473 1.6950135e-19)
(0.73644924 0.14428677 -2.4457274e-20)
(0.77678357 0.37678798 -1.0433963e-22)
(0.81272407 0.49913473 4.3829521e-20)
(0.83487007 0.50013636 -4.1947732e-21)
(0.85737582 0.37228767 2.9982273e-21)
(0.88850754 0.12729968 -1.2815577e-20)
(0.90458163 -0.15388368 4.8957177e-21)
(0.88359399 -0.36151933 1.1432974e-21)
(0.82914058 -0.43255089 -2.4797047e-20)
(0.7707362 -0.34566671 4.3460044e-20)
(0.74234942 -0.11817596 1.1724186e-19)
(0.74656246 0.18730101 -2.2010768e-20)
(0.73066161 0.30237103 -1.2716022e-20)
(0.62698297 0.219069 1.5651683e-19)
(0.71415721 0.16626863 -1.2827573e-19)
(0.80253359 0.090344827 -1.76578e-20)
(0.89121802 -0.0053130602 5.2743741e-20)
(0.97825685 -0.12139253 4.787325e-20)
(1.0583388 -0.25454048 5.7510251e-20)
(1.1190232 -0.39024393 5.086285e-20)
(1.1445391 -0.50548591 -2.8575851e-20)
(1.1275819 -0.58052534 -2.749252e-20)
(1.0761037 -0.61000072 -8.1899352e-20)
(1.0075196 -0.60362737 5.9823675e-20)
(0.93741556 -0.57750862 5.3499389e-21)
(0.87302993 -0.54512955 -5.5527949e-20)
(0.81437451 -0.51305152 6.295079e-20)
(0.75919466 -0.48280816 5.8271661e-20)
(0.70070841 -0.46024367 -5.8324846e-20)
(0.62458857 -0.44786315 -4.7832892e-20)
(0.54002598 -0.40572673 1.0441658e-19)
(0.4986433 -0.26707769 5.9641058e-20)
(0.52545981 -0.035419303 5.6759478e-20)
(0.59592176 0.20904577 9.4814588e-20)
(0.68018604 0.39200352 0)
(0.75649895 0.48987456 2.9726331e-20)
(0.81246731 0.5252952 -2.3551833e-20)
(0.84698787 0.54143386 -6.7958066e-20)
(0.86981433 0.56123808 5.5433135e-21)
(0.89627696 0.55069607 7.7103611e-20)
(0.93569029 0.43943405 -1.0767784e-19)
(0.98096247 0.19889874 2.8625712e-20)
(1.0108242 -0.11007051 -8.0114084e-20)
(1.008606 -0.37096973 -1.1353385e-20)
(0.97659686 -0.49911344 1.4694181e-21)
(0.92853822 -0.50654696 2.1096288e-20)
(0.87023777 -0.47069359 -2.9970537e-20)
(0.79962372 -0.43107998 3.6690448e-20)
(0.7327207 -0.33992927 -2.8127044e-20)
(0.70346058 -0.14202585 -6.0729631e-20)
(0.72177028 0.12467577 -5.4261922e-20)
(0.76663412 0.35777245 1.0107003e-19)
(0.8118243 0.48714301 -5.3800098e-20)
(0.8456636 0.49425405 1.9300926e-20)
(0.87898804 0.36953627 4.1428306e-20)
(0.91558292 0.12800141 -3.2850634e-20)
(0.93045843 -0.14800174 -3.0303545e-21)
(0.90364342 -0.35057926 6.1480434e-21)
(0.84110158 -0.42000272 -3.1446328e-22)
(0.77317143 -0.33731284 5.0500016e-20)
(0.7377806 -0.11641939 1.5138435e-19)
(0.74081297 0.18656254 9.3718083e-20)
(0.73465783 0.30345045 4.6031781e-22)
(0.79042805 0.13912492 1.1357078e-19)
(0.86764743 0.095386574 -8.8795385e-21)
(0.95053785 0.030143319 -8.7083839e-20)
(1.0387471 -0.054108469 2.5193184e-20)
(1.1227405 -0.15617617 -1.378175e-20)
(1.1908006 -0.26951542 6.6070267e-21)
(1.23023 -0.38010628 -1.1054215e-19)
(1.2311419 -0.4708395 -3.0396103e-20)
(1.1934821 -0.52934686 7.5543165e-20)
(1.1287334 -0.55363585 -7.9826671e-21)
(1.0531681 -0.55113534 -7.7142157e-20)
(0.97925201 -0.53270471 5.9662726e-21)
(0.91205872 -0.50730446 2.1457488e-20)
(0.85077733 -0.47988946 5.1786293e-20)
(0.79297084 -0.45122538 -4.4895494e-20)
(0.73543143 -0.42339562 -5.1375887e-20)
(0.66650842 -0.40360173 6.353676e-20)
(0.57935391 -0.37707133 -5.663414e-21)
(0.51097829 -0.28609152 -1.9770319e-20)
(0.50915111 -0.099099862 -1.9089291e-22)
(0.56683931 0.13047678 -4.7707563e-20)
(0.65076146 0.32371498 3.6237743e-20)
(0.73428104 0.44211865 -1.0006758e-22)
(0.80096666 0.49611242 3.0501624e-21)
(0.84641817 0.52281572 -1.6074687e-19)
(0.87965279 0.54647566 -1.0418779e-19)
(0.91684566 0.54015028 -3.7597313e-20)
(0.96654938 0.4393487 4.4708948e-20)
(1.0196627 0.21322822 -1.7841309e-19)
(1.0538509 -0.085768331 -2.5703922e-19)
(1.0505304 -0.34563344 -9.3954514e-21)
(1.0104325 -0.47775994 -6.2996192e-20)
(0.95156456 -0.48789437 -2.5424393e-20)
(0.88569932 -0.45110491 -2.781957e-20)
(0.81014526 -0.41256564 2.468054e-22)
(0.73600072 -0.33225491 -1.950838e-19)
(0.69782904 -0.15166071 -5.5712108e-20)
(0.71177185 0.10292453 -2.2155525e-20)
(0.7594309 0.33541438 -1.848249e-21)
(0.81275559 0.47175525 -9.2636783e-20)
(0.85767486 0.48588036 -1.2820145e-21)
(0.90116585 0.36596504 -2.5253979e-20)
(0.94274171 0.12959886 3.3941647e-21)
(0.95650122 -0.14030491 2.7800924e-20)
(0.92439647 -0.337747 1.16884e-20)
(0.85459919 -0.40574791 4.7041585e-20)
(0.77792997 -0.32766286 -4.8358165e-20)
(0.73569532 -0.11437699 3.1384515e-20)
(0.73736148 0.18487079 -4.7306294e-20)
(0.74127204 0.30348302 -1.6558298e-21)
(1.0036871 0.071669831 1.82699e-21)
(1.0610959 0.034501484 -2.0278556e-20)
(1.1269002 -0.019808466 2.2616349e-20)
(1.1964765 -0.089007253 1.3085992e-20)
(1.2572845 -0.17181966 -7.5122826e-20)
(1.2977986 -0.2619395 -1.3803643e-19)
(1.3092376 -0.34851057 -1.2490078e-19)
(1.2875798 -0.4200285 -1.6129339e-21)
(1.2365262 -0.46872672 7.5894394e-20)
(1.1667869 -0.49316399 -3.593834e-20)
(1.0907913 -0.49740943 -4.6730393e-20)
(1.0173205 -0.48776614 1.7739611e-20)
(0.949853 -0.46983863 2.6347983e-20)
(0.88778261 -0.44744533 1.5617079e-20)
(0.82884414 -0.42183483 -3.1368881e-20)
(0.77152898 -0.39283373 4.3431361e-20)
(0.70977151 -0.36543109 4.9238485e-20)
(0.63051228 -0.34093458 -1.1788378e-19)
(0.54706005 -0.28502293 5.1237134e-22)
(0.51192526 -0.14895059 2.3779564e-20)
(0.54695293 0.052729656 -1.5448658e-19)
(0.62446694 0.24874995 3.9132919e-20)
(0.71179837 0.38576488 -3.1840062e-20)
(0.78749211 0.45929499 -2.6239004e-20)
(0.84324494 0.49823717 5.4807316e-20)
(0.88609395 0.52706775 -6.2354496e-20)
(0.93232724 0.52628491 -1.901722e-20)
(0.99054314 0.43806356 8.4998277e-20)
(1.0509971 0.22909181 7.5933611e-20)
(1.0909093 -0.057568695 2.0229917e-19)
(1.0892764 -0.31576586 3.0601077e-20)
(1.043847 -0.45254807 2.9520162e-20)
(0.97569472 -0.46701377 -5.4229746e-20)
(0.90311453 -0.43068483 -5.7787765e-20)
(0.82413081 -0.39315565 -3.883869e-20)
(0.74451065 -0.32304021 2.4852129e-20)
(0.69794681 -0.16081612 -1.7499053e-19)
(0.70628154 0.079729608 -1.1909172e-19)
(0.75494518 0.31026752 -1.1183092e-19)
(0.81513569 0.45326665 3.299286e-20)
(0.87032891 0.47518124 -5.9491299e-22)
(0.92326599 0.36164262 4.8849664e-20)
(0.96941736 0.13198693 9.1765441e-20)
(0.98225258 -0.13107134 -1.6798553e-20)
(0.94549521 -0.32334214 -2.5699764e-20)
(0.86933681 -0.39003395 -1.9489613e-20)
(0.78483754 -0.31677259 -9.5914907e-20)
(0.73604647 -0.11199811 -2.8586555e-20)
(0.73613905 0.18224231 -6.6436147e-20)