/*--------------------------------*- C++ -*----------------------------------*\
| =========                 |                                                 |
| \\      /  F ield         | OpenFOAM: The Open Source CFD Toolbox           |
|  \\    /   O peration     | Version:  2406                                  |
|   \\  /    A nd           | Website:  www.openfoam.com                      |
|    \\/     M anipulation  |                                                 |
\*---------------------------------------------------------------------------*/
FoamFile
{
    version     2.0;
    format      ascii;
    arch        "LSB;label=32;scalar=64";
    class       volVectorField;
    location    "30";
    object      U_0;
}
// * * * * * * * * * * * * * * * * * * * * * * * * * * * * * * * * * * * * * //

dimensions      [0 1 -1 0 0 0 0];

internalField   nonuniform List<vector> 
9200
(
(-0.015920383 0.012063593 -3.8179786e-20)
(-0.034690438 0.016985036 8.7691337e-21)
(-0.037168887 0.015061189 -1.9623958e-20)
(-0.021037551 0.010792688 -5.550228e-20)
(0.017542546 0.0073390689 1.1109999e-20)
(0.081862877 0.0060974781 4.0166443e-20)
(0.17372997 0.0077398289 -1.2326292e-20)
(0.29206627 0.012661006 1.1520004e-20)
(0.43185808 0.02082762 3.6804015e-20)
(0.58423189 0.031755813 2.9173919e-21)
(0.73808308 0.044488249 -3.8342484e-20)
(0.8824027 0.057684615 3.2451596e-20)
(1.0083709 0.069839404 -5.331223e-20)
(1.1106185 0.079552244 -2.1767139e-20)
(1.1875067 0.08575941 3.8659534e-21)
(1.240598 0.087864345 -1.2001483e-20)
(1.2736331 0.085747514 8.2754552e-21)
(1.2913652 0.079702292 1.9006556e-20)
(1.2984772 0.070190696 1.1999827e-20)
(1.2990114 0.058556592 1.6374847e-20)
(-0.020420723 0.014927005 -1.3329443e-20)
(-0.033522804 0.022090544 5.682402e-21)
(-0.019024128 0.020819472 2.1120172e-20)
(0.023885965 0.01679356 -9.5303971e-20)
(0.097779837 0.013920188 -1.0844357e-20)
(0.20384164 0.01433782 9.5227039e-20)
(0.33948709 0.019093286 -4.8689426e-20)
(0.49678778 0.028305123 -1.3939488e-20)
(0.66313499 0.041173931 5.7948263e-20)
(0.8240794 0.056153038 -7.2949783e-20)
(0.9668459 0.07130181 -5.1898937e-20)
(1.0829574 0.08471912 1.1371144e-19)
(1.1692312 0.094915087 4.9807757e-20)
(1.2272398 0.10102112 -7.8978918e-20)
(1.2617939 0.10281312 1.5689733e-20)
(1.2791144 0.10058722 -3.028879e-20)
(1.2852436 0.094964091 -2.5626279e-21)
(1.2850094 0.086695233 5.3551847e-20)
(1.2816425 0.076500909 2.3480398e-20)
(1.2768688 0.06532041 -6.013041e-20)
(-0.021452138 0.014305787 4.7609341e-20)
(-0.022983271 0.020665571 1.6311425e-20)
(0.015163884 0.019858596 3.0831014e-20)
(0.092248531 0.017830924 7.8219634e-22)
(0.20807349 0.01882328 -3.7365778e-20)
(0.35833184 0.02510223 2.2321786e-20)
(0.53196433 0.037069399 1.2188536e-20)
(0.71219761 0.053434779 -6.8959208e-20)
(0.88088772 0.071776663 8.706744e-20)
(1.0234573 0.089353996 3.0918717e-20)
(1.1320137 0.10385829 -9.0796818e-20)
(1.2058243 0.11387301 -3.2282026e-20)
(1.2496683 0.11897089 -1.2603334e-21)
(1.2711902 0.11952106 2.9253736e-20)
(1.2783493 0.11635356 -1.4797822e-20)
(1.2776787 0.11042726 2.5966337e-20)
(1.2735683 0.10260021 -1.2953701e-20)
(1.2683754 0.09351644 -6.1550203e-20)
(1.2630127 0.083628894 -3.4177726e-20)
(1.2574728 0.073292951 2.5281535e-20)
(-0.018488314 0.011280469 4.0049888e-20)
(-0.0011434165 0.014609797 3.8428408e-20)
(0.068406073 0.014553956 1.381524e-20)
(0.18679731 0.017220677 2.7574171e-21)
(0.34753482 0.02626731 1.3430112e-20)
(0.5362871 0.04255148 -5.0767037e-20)
(0.731559 0.064141742 -3.2966359e-20)
(0.91068255 0.087387336 0)
(1.0566167 0.10845882 4.6251862e-20)
(1.161732 0.12457286 -2.5890335e-20)
(1.2276124 0.13451786 -1.4355355e-19)
(1.2620456 0.13851435 -1.4658593e-20)
(1.2751206 0.13768124 8.9838671e-20)
(1.2760385 0.13342848 -7.3085889e-21)
(1.2714278 0.12700852 -1.719342e-21)
(1.2651075 0.11930955 2.2134384e-20)
(1.2587369 0.1108559 -7.873647e-21)
(1.2526995 0.10190113 -5.079757e-20)
(1.2468452 0.092599477 -3.9267411e-20)
(1.2407502 0.082967435 5.7452297e-20)
(-0.010993121 0.006942854 -1.922415e-20)
(0.034215852 0.0068951996 -4.1832442e-20)
(0.14368301 0.0097514654 5.2945396e-20)
(0.30797893 0.021128935 7.0084065e-21)
(0.50940489 0.042283233 -2.5290372e-20)
(0.72121278 0.070482195 1.3234123e-20)
(0.91486945 0.10040185 3.6508311e-21)
(1.0693889 0.12661562 5.7762965e-20)
(1.1763716 0.14556829 9.1785453e-21)
(1.2392039 0.15622893 -2.8451097e-20)
(1.2684528 0.15959032 1.0303038e-19)
(1.2764935 0.15764027 -7.056563e-20)
(1.2736453 0.15241011 -1.6291596e-19)
(1.2666183 0.14542774 -6.4097632e-21)
(1.258809 0.13759514 9.1612081e-20)
(1.2514295 0.12932753 0)
(1.2446185 0.12076992 7.2351729e-21)
(1.2381477 0.11195575 -1.5091794e-20)
(1.2317601 0.10295417 -5.9972104e-21)
(1.2251192 0.093675172 1.8763077e-20)
(0.0020172114 0.0021897054 -4.7592104e-20)
(0.085136632 0.00078678553 3.3236088e-21)
(0.24152675 0.010631248 -7.8446977e-21)
(0.45050131 0.035118686 4.0083219e-20)
(0.67970166 0.070372248 -3.0499814e-20)
(0.89296159 0.10868603 -2.266793e-20)
(1.0628776 0.14219213 4.2234311e-20)
(1.178292 0.16589159 2.5794344e-21)
(1.2433902 0.17863697 -5.1108494e-20)
(1.2713006 0.18221005 1.0254322e-19)
(1.2768464 0.17959996 -7.3386773e-21)
(1.2717307 0.1735656 -1.0875638e-19)
(1.2630271 0.16596683 0)
(1.2539836 0.15776062 4.7822703e-20)
(1.2456 0.14930817 6.8362792e-21)
(1.2379221 0.14069409 -7.9329961e-20)
(1.2307379 0.13192896 -1.8464874e-20)
(1.2238215 0.12302307 -1.2169483e-20)
(1.2169895 0.11405016 -1.3431274e-20)
(1.2100048 0.10488276 3.5201404e-20)
(0.021598935 -0.0019898742 -4.2299882e-20)
(0.1523554 -0.00053178399 7.9799303e-20)
(0.35854973 0.021535156 5.7780166e-20)
(0.6034439 0.062202774 7.8836864e-20)
(0.84145635 0.11020651 -2.9524901e-20)
(1.0351689 0.15362144 -1.0813792e-19)
(1.1673063 0.18474053 -4.9873517e-20)
(1.2409979 0.20159387 1.264279e-19)
(1.2715758 0.20659569 1.9010843e-20)
(1.2767791 0.20390259 -3.2134576e-20)
(1.2703581 0.19722698 1.3078611e-20)
(1.2602928 0.18892265 -7.0507341e-21)
(1.2500392 0.18010039 0)
(1.2405821 0.17113275 2.9091758e-20)
(1.2319582 0.16209208 -8.1309374e-20)
(1.2239863 0.15298505 -3.0599267e-20)
(1.2164779 0.14382895 7.7440653e-20)
(1.209255 0.13465258 -2.2147688e-21)
(1.2021616 0.12551856 3.7012801e-21)
(1.1950425 0.1162888 2.3171783e-20)
(0.048383448 -0.0043127528 -5.989363e-20)
(0.23445481 0.0060464002 -3.0422153e-20)
(0.48741202 0.045332867 6.0069448e-20)
(0.75326974 0.10248405 9.4223802e-20)
(0.98034762 0.15872055 1.0647093e-19)
(1.1399262 0.20092114 -1.2821012e-19)
(1.2306096 0.22482539 2.53626e-21)
(1.2689605 0.23302428 1.4416593e-19)
(1.2762646 0.23101562 7.3403106e-20)
(1.2694021 0.22385044 -7.6216223e-20)
(1.2581201 0.21468911 -1.177437e-19)
(1.2465675 0.20497007 -3.7281918e-21)
(1.2359188 0.19515704 4.6522658e-20)
(1.2262546 0.18534424 -7.4541254e-21)
(1.2174191 0.17554872 -1.3835337e-20)
(1.2092479 0.16579451 2.0429318e-20)
(1.2015721 0.15611223 4.1629949e-20)
(1.1942141 0.14652972 -4.1525863e-20)
(1.187033 0.13708022 -9.431802e-20)
(1.1799607 0.12765217 2.1329271e-20)
(0.082134819 -0.003267816 -2.1177802e-21)
(0.32740496 0.023192681 -2.39013e-19)
(0.61812687 0.083018714 3.9602655e-20)
(0.88742835 0.15379285 1.5799367e-19)
(1.0880016 0.21196119 1.2240597e-19)
(1.2076058 0.24738274 1.6921366e-20)
(1.2613745 0.26158173 -2.0138869e-19)
(1.2744947 0.26148993 0)
(1.2684889 0.25407807 -1.0084695e-19)
(1.2562046 0.24385059 -1.9681338e-20)
(1.2432345 0.23287904 6.7980357e-20)
(1.2312393 0.2218394 1.240568e-20)
(1.2204151 0.21088152 -4.9468219e-20)
(1.2106228 0.20003844 -5.0936988e-20)
(1.2017057 0.18933962 2.3886577e-20)
(1.1935059 0.17881777 4.2865383e-20)
(1.1858361 0.16849516 -5.2268397e-20)
(1.1785073 0.15838592 -1.0008304e-19)
(1.1714065 0.14849197 -3.302496e-21)
(1.1645429 0.13876112 2.4526751e-20)
(0.12167327 0.0026872445 2.4222819e-20)
(0.42516363 0.052725836 5.6886036e-20)
(0.74043316 0.13371712 -1.5354516e-19)
(0.99706582 0.21270767 -1.3896097e-19)
(1.1623218 0.2664302 1.0031227e-19)
(1.243714 0.29147692 1.2414085e-19)
(1.2692058 0.29566313 1.0396934e-20)
(1.2666522 0.28865285 -1.7194075e-19)
(1.2540204 0.27718431 -3.7165839e-21)
(1.2396122 0.26451775 6.5527903e-20)
(1.2261178 0.25177507 6.728069e-21)
(1.2140017 0.23922384 -2.4075757e-20)
(1.2031555 0.22691835 -8.1877946e-20)
(1.1934088 0.21488954 -6.3546006e-21)
(1.1846059 0.20316677 4.3402703e-20)
(1.1765696 0.19177094 3.5968093e-20)
(1.1690857 0.18070597 1.9005133e-20)
(1.1619577 0.16996727 -4.8961554e-20)
(1.1551088 0.15953038 1.2501582e-20)
(1.1485988 0.14941782 7.4888978e-20)
(0.0017526411 -0.1061108 -1.0265243e-19)
(-0.013984453 -0.18700076 2.0384079e-21)
(-0.040662416 -0.20099576 -2.4404704e-19)
(-0.072945397 -0.18400199 8.0614127e-20)
(-0.10659677 -0.15477911 1.9650442e-20)
(-0.13995791 -0.11994683 1.566003e-19)
(-0.17201237 -0.080019449 1.2070947e-19)
(-0.20189428 -0.033699373 -2.481249e-19)
(-0.22889845 0.020064306 -3.269971e-20)
(-0.25250342 0.081447032 1.6823656e-20)
(-0.27217911 0.15010524 -1.3672612e-19)
(-0.28731051 0.22483072 -1.5564087e-19)
(-0.29735757 0.30369222 -7.4983816e-20)
(-0.30176442 0.38408765 5.6680415e-20)
(-0.29994685 0.4627933 1.097248e-19)
(-0.29130382 0.536049 -5.1604679e-20)
(-0.27516545 0.59967724 -1.0643906e-19)
(-0.25054147 0.64925091 8.930567e-20)
(-0.2160051 0.68037336 -8.1645521e-20)
(-0.17091405 0.68909207 -2.597873e-20)
(0.0074802471 -0.090859845 9.1765625e-20)
(-0.0063750991 -0.15588831 7.2618318e-21)
(-0.034055082 -0.16211551 1.8143942e-19)
(-0.068572986 -0.14151294 -1.0161495e-19)
(-0.10490038 -0.11094987 -4.5033267e-20)
(-0.14111726 -0.076467319 -1.587759e-21)
(-0.17605724 -0.03838874 -4.7553883e-20)
(-0.20872125 0.0046135587 5.2933753e-20)
(-0.23820582 0.053629017 -9.4824355e-20)
(-0.26360362 0.10904416 -3.5379229e-21)
(-0.28389841 0.17047801 5.4227571e-20)
(-0.29802598 0.23673535 9.4291062e-21)
(-0.30488049 0.30588137 2.5424615e-19)
(-0.30330366 0.37526696 2.5645613e-20)
(-0.29208538 0.4415697 -5.0130643e-20)
(-0.2699959 0.50088806 -4.0455547e-20)
(-0.23586464 0.54891358 -6.0869132e-20)
(-0.18859084 0.58121465 -6.0619161e-20)
(-0.12708275 0.59358477 -4.5559964e-21)
(-0.049947761 0.58220644 9.4981653e-22)
(0.011249813 -0.074299074 4.1484581e-20)
(7.2295834e-05 -0.12434911 -1.6864787e-21)
(-0.026115937 -0.12407557 1.64209e-21)
(-0.059342665 -0.10058899 -3.8653245e-20)
(-0.094125295 -0.068853945 -7.6939126e-20)
(-0.128302 -0.034720879 -1.4587776e-19)
(-0.1606156 0.0012316484 -7.2813769e-21)
(-0.18994803 0.040292666 2.0330564e-19)
(-0.21517279 0.083615109 -2.8610451e-20)
(-0.23507893 0.13160432 3.3263966e-20)
(-0.24835256 0.18385244 -1.6753907e-19)
(-0.25359445 0.23919264 1.8321119e-19)
(-0.24935327 0.29574351 4.5522837e-21)
(-0.23418113 0.35094608 -1.7958638e-19)
(-0.20669416 0.40164334 -8.1806293e-20)
(-0.16566705 0.44423445 -1.5406517e-19)
(-0.11019589 0.47493972 8.2905224e-20)
(-0.039768981 0.48972883 -1.3688918e-19)
(0.045102865 0.48541806 -1.0891475e-19)
(0.14580509 0.45964972 -2.694361e-20)
(0.013235246 -0.058795474 3.6468083e-20)
(0.004909322 -0.096039114 9.3859325e-20)
(-0.018322319 -0.090961138 -3.1111106e-20)
(-0.047892049 -0.065698328 -2.2477146e-20)
(-0.078018995 -0.033290643 -2.2030828e-20)
(-0.10635211 0.00033703456 2.8332814e-20)
(-0.13157572 0.034118099 3.467359e-20)
(-0.15254179 0.069024599 -4.8488637e-20)
(-0.16803658 0.10615544 -8.008578e-20)
(-0.17674338 0.14596057 -3.6962879e-20)
(-0.1772795 0.18810927 -6.1641429e-20)
(-0.1682245 0.23154375 1.3542376e-19)
(-0.14818386 0.27458608 -1.4637166e-19)
(-0.11588548 0.31502175 -2.5886509e-20)
(-0.070195845 0.3500657 6.7170221e-20)
(-0.010414399 0.37665821 -2.6029367e-20)
(0.063504224 0.39177457 8.7956818e-20)
(0.15083582 0.39259161 1.2403473e-19)
(0.24940888 0.37711081 -1.3237199e-19)
(0.35955492 0.34504948 -1.5633889e-19)
(0.013750617 -0.045480056 6.0062184e-22)
(0.0075229994 -0.072749253 5.1845173e-20)
(-0.012680806 -0.065116794 1.1099774e-19)
(-0.037897183 -0.040045335 -2.428056e-20)
(-0.062091509 -0.0084867792 7.4760639e-20)
(-0.082690806 0.023793847 2.707044e-20)
(-0.098382531 0.055054968 -8.8013161e-20)
(-0.10816109 0.085669514 -1.5898309e-19)
(-0.11098156 0.11651999 1.3163403e-19)
(-0.10569638 0.1481145 1.1192624e-19)
(-0.091136192 0.18029272 8.1429527e-20)
(-0.066151522 0.21222462 8.4315207e-20)
(-0.02971318 0.24251608 0)
(0.018904705 0.26934319 2.179157e-20)
(0.08007326 0.29051884 -6.8034294e-21)
(0.1535853 0.30375924 2.4419275e-20)
(0.23838654 0.30701435 -6.1328927e-20)
(0.33266315 0.29879445 2.5253031e-20)
(0.43343615 0.27841237 -1.021305e-19)
(0.54117196 0.2460868 1.0205756e-19)
(0.012884157 -0.034194773 2.2059262e-20)
(0.0070487164 -0.054201239 -6.1256178e-20)
(-0.011272949 -0.04656503 7.9642984e-21)
(-0.032947892 -0.024461783 3.3231714e-20)
(-0.05175312 0.0035594694 1.0764381e-19)
(-0.064890206 0.032364344 -1.3691039e-20)
(-0.071089647 0.059760246 -6.380514e-20)
(-0.069593737 0.085464558 9.3473607e-20)
(-0.059733123 0.10994631 1.7980343e-19)
(-0.040771504 0.13361094 3.2621313e-20)
(-0.012002367 0.1564113 -5.043772e-20)
(0.027192718 0.17781461 -6.0524135e-20)
(0.077173451 0.1968954 -8.5551048e-20)
(0.13789828 0.21248015 -2.0073264e-20)
(0.20893757 0.22324467 -3.549558e-20)
(0.28954737 0.22789989 3.4930932e-20)
(0.37843832 0.22518717 1.4719224e-20)
(0.47591178 0.21397461 -5.0838632e-20)
(0.58168822 0.19277904 -1.2893709e-19)
(0.7021903 0.16097295 -1.9912501e-20)
(0.010329386 -0.02395593 -3.6104725e-20)
(0.0025657764 -0.038591875 -3.2198895e-20)
(-0.01550258 -0.033185704 -8.3470888e-20)
(-0.035031209 -0.016875292 9.3682144e-21)
(-0.049827879 0.0044351086 6.1935315e-22)
(-0.057032596 0.026728673 -1.4445776e-19)
(-0.055399409 0.047889017 4.9819737e-21)
(-0.044372814 0.067238043 7.6539382e-20)
(-0.023616813 0.084834115 6.3018704e-20)
(0.0071296379 0.10091234 -1.1782242e-19)
(0.048113534 0.11563693 -1.2216286e-19)
(0.099607614 0.12892546 7.0517238e-20)
(0.16174198 0.1403751 7.359079e-20)
(0.23510356 0.14928714 -3.5269638e-20)
(0.32077398 0.1547058 -5.9933261e-21)
(0.41945276 0.15537415 -1.9756412e-20)
(0.53155779 0.1498653 -1.7243861e-20)
(0.65508013 0.13696921 3.7871872e-20)
(0.78555867 0.11574376 1.3176496e-20)
(0.92235225 0.089226004 -8.9145317e-20)
(0.0056332089 -0.01379495 -1.177479e-20)
(-0.0061557324 -0.023778915 8.8840553e-21)
(-0.024845636 -0.021737045 -3.7926808e-20)
(-0.042588065 -0.01286481 2.5582425e-20)
(-0.05361595 -0.00035281095 -3.6219695e-20)
(-0.055128259 0.013241152 3.2144124e-20)
(-0.045753043 0.026372879 2.0733687e-20)
(-0.024795762 0.038479436 -7.3936097e-20)
(0.008329172 0.049511089 1.2765837e-20)
(0.054205619 0.059723315 1.0493978e-19)
(0.11398239 0.069371642 2.5344027e-20)
(0.18899019 0.078425193 -2.3937994e-20)
(0.28036144 0.086490597 -4.2518441e-20)
(0.38795833 0.092819646 -3.3823012e-20)
(0.50960586 0.096464987 -3.5245134e-21)
(0.64132216 0.096493768 1.2504412e-20)
(0.77749224 0.092137092 -3.5147221e-20)
(0.91133513 0.082963913 -3.4598004e-20)
(1.0361842 0.068856966 9.9053312e-20)
(1.1469521 0.053137778 -1.8309672e-20)
(-0.0011657068 -0.0035944695 -1.0474385e-20)
(-0.017636476 -0.0086328806 3.2984555e-21)
(-0.035601159 -0.0095353515 1.4744001e-20)
(-0.048959342 -0.0076069701 -1.6319327e-20)
(-0.052581486 -0.0034315629 -4.2969345e-21)
(-0.043521913 0.0019990634 7.9623977e-20)
(-0.019686051 0.0080582924 -3.7978268e-20)
(0.020663728 0.014521395 6.2103092e-20)
(0.079216755 0.021432613 4.2138093e-20)
(0.15749607 0.028996952 -3.5722018e-20)
(0.25567529 0.037218837 6.5161687e-21)
(0.37190007 0.045853964 -4.7047106e-20)
(0.50212204 0.054405953 1.4012611e-20)
(0.64038969 0.062148262 9.6896107e-21)
(0.77963854 0.068189058 -4.4210455e-21)
(0.91266874 0.071575631 -3.7056649e-22)
(1.033033 0.071449207 6.6495075e-21)
(1.1356805 0.067207767 -2.4202943e-20)
(1.2179056 0.058737227 1.2501512e-20)
(1.277663 0.047753896 3.3430094e-20)
(-0.0089617059 0.0055597989 1.6254722e-21)
(-0.028432066 0.0058547811 6.9075049e-21)
(-0.041573757 0.0036504528 -8.689237e-21)
(-0.044293499 0.0010743984 -1.1156431e-20)
(-0.032023679 -0.00023200813 4.6835737e-20)
(-0.0013729111 0.00017847633 4.5845929e-21)
(0.050506224 0.0023958248 -7.4018945e-20)
(0.12580066 0.006458961 2.6481569e-20)
(0.22486308 0.012567747 9.0977142e-21)
(0.34532967 0.020672771 -5.9347022e-20)
(0.48187769 0.030495129 2.3541474e-21)
(0.62677723 0.041427499 -6.029486e-20)
(0.77116334 0.052522639 -4.6882036e-20)
(0.90652088 0.062603762 5.3705984e-20)
(1.025947 0.07045377 2.5616782e-21)
(1.1249383 0.075016765 -6.1207032e-21)
(1.2016347 0.075566078 -2.0035425e-21)
(1.2565962 0.071792373 -1.0481245e-22)
(1.2923767 0.063821342 -7.3775333e-21)
(1.3116206 0.052394138 1.3522819e-20)
(-0.10645291 0.66852848 -4.5007116e-20)
(-0.013716727 0.6001696 -9.6057521e-20)
(0.10066352 0.47951509 2.5896622e-19)
(0.22393077 0.31986947 2.0629195e-20)
(0.34319124 0.13544721 0)
(0.45026755 -0.062674739 0)
(0.54362543 -0.26510833 -1.6267401e-20)
(0.62371564 -0.45530621 -3.0361447e-20)
(0.68612876 -0.60582081 1.5601512e-19)
(0.72488682 -0.69358372 1.2080199e-19)
(0.73911503 -0.71746605 -4.8287337e-22)
(0.73405583 -0.69775616 -2.8744463e-20)
(0.71779428 -0.66057762 8.3858812e-21)
(0.69517133 -0.62910861 3.0262461e-20)
(0.6609707 -0.62145655 5.7821328e-20)
(0.61262799 -0.62246188 -3.0370591e-20)
(0.57705669 -0.55868094 -2.6873697e-20)
(0.58856103 -0.36363591 -1.3419995e-19)
(0.64395689 -0.064673127 4.7301291e-20)
(0.71738466 0.24206941 7.3849512e-21)
(0.78518171 0.46605587 -2.8082906e-20)
(0.83172169 0.57310821 7.278286e-20)
(0.85230019 0.58885979 3.6227577e-20)
(0.85331693 0.56675732 -8.3457273e-21)
(0.84132435 0.5547241 -1.3015696e-21)
(0.81753726 0.56475404 3.0349623e-21)
(0.78959552 0.54623755 -1.3695873e-20)
(0.77647161 0.41591278 -4.81137e-20)
(0.78810232 0.15094708 -7.4302946e-20)
(0.81313894 -0.16770824 2.0742945e-20)
(0.83762229 -0.41844641 -7.9028204e-20)
(0.85534391 -0.5351204 -6.6333801e-21)
(0.85742139 -0.54844734 -1.2427123e-21)
(0.83657718 -0.52823007 -2.2419656e-20)
(0.8015871 -0.4824681 1.7642028e-21)
(0.77903978 -0.34671748 -1.0686256e-20)
(0.78598467 -0.09313357 2.1074026e-20)
(0.80841919 0.20018022 3.8646311e-20)
(0.82630878 0.4198221 4.0979826e-20)
(0.82901162 0.5159931 1.0041222e-20)
(0.81405019 0.49858895 -7.3241455e-21)
(0.8024325 0.36516477 1.93906e-20)
(0.8147448 0.11638411 -7.8769657e-22)
(0.83311778 -0.17288112 -7.0487138e-20)
(0.83046555 -0.38878669 -4.5028382e-20)
(0.80364452 -0.45834058 -6.7102214e-21)
(0.77774484 -0.35495461 -2.0467041e-20)
(0.77138943 -0.10997339 2.5944364e-20)
(0.7780331 0.19446632 1.9399988e-20)
(0.73472248 0.29429153 -5.7818831e-20)
(0.045407644 0.54729521 5.4032432e-20)
(0.16105337 0.46696275 2.3109163e-19)
(0.28681573 0.34637331 9.1734675e-20)
(0.41023779 0.19783683 -1.0252946e-19)
(0.52189052 0.031546349 -1.3283974e-20)
(0.61821476 -0.14687208 -4.5013408e-20)
(0.70129129 -0.33235331 3.5613078e-20)
(0.76902927 -0.50592143 1.6741841e-19)
(0.81258115 -0.63698829 2.3123299e-21)
(0.82613952 -0.70427714 -5.6589873e-20)
(0.81379524 -0.71145316 -9.1554254e-20)
(0.78579225 -0.68180456 -2.7325601e-20)
(0.75171339 -0.64028336 4.8114079e-20)
(0.71649956 -0.60422741 -5.4175792e-20)
(0.67487995 -0.58842119 -5.17479e-20)
(0.61691722 -0.58917259 5.6795345e-21)
(0.55990184 -0.54706789 2.2536681e-20)
(0.54673936 -0.3846679 5.9776015e-20)
(0.58698408 -0.10872798 -1.1291985e-20)
(0.65661096 0.19142663 6.6754409e-20)
(0.73099912 0.42396857 8.3661069e-20)
(0.79140978 0.54756349 -6.071079e-20)
(0.82810347 0.57887857 -5.650385e-20)
(0.84297598 0.56703544 -6.8457499e-21)
(0.8417993 0.5610258 -3.820781e-21)
(0.82938696 0.57353769 1.2005916e-21)
(0.81600553 0.55306724 3.3983724e-21)
(0.81746408 0.41818269 1.2190199e-20)
(0.83808527 0.14925336 1.57404e-20)
(0.86269986 -0.17169409 -3.1347911e-20)
(0.87776061 -0.42271573 2.1788391e-20)
(0.88139879 -0.53614289 -5.0023394e-21)
(0.87024776 -0.54289356 6.5581864e-21)
(0.83852117 -0.51710274 1.6051753e-20)
(0.79225256 -0.47218066 -4.6350833e-21)
(0.75769921 -0.34394524 7.2694964e-20)
(0.75714226 -0.098528893 -7.5649511e-20)
(0.78099414 0.19135177 5.9572798e-20)
(0.80760241 0.41361549 -7.3456089e-20)
(0.82166724 0.51532796 9.2123768e-22)
(0.81890809 0.50065188 3.7412467e-21)
(0.81910461 0.36511569 2.1544038e-20)
(0.83833326 0.11419289 5.0216481e-20)
(0.85572029 -0.17313587 3.9282587e-20)
(0.84609035 -0.38457472 1.6082795e-20)
(0.8091479 -0.45195046 -1.7789621e-21)
(0.772316 -0.35097661 -6.0157606e-20)
(0.75927842 -0.10901377 -1.0802632e-19)
(0.76541567 0.19660402 -3.5083768e-21)
(0.73088916 0.2982984 1.5189289e-20)
(0.25483317 0.41720131 -5.177991e-20)
(0.36888103 0.33970233 -2.4519226e-20)
(0.48560457 0.23072971 7.2815451e-20)
(0.59549319 0.10064559 1.2433512e-20)
(0.69236222 -0.044644876 -2.4524717e-20)
(0.77766598 -0.20546062 -2.411812e-20)
(0.85252931 -0.37559712 -1.1091551e-19)
(0.90799028 -0.53147451 7.444459e-20)
(0.93129188 -0.64217675 1.2272609e-19)
(0.91961559 -0.69138593 -7.7329454e-20)
(0.88309988 -0.68737516 6.3951492e-21)
(0.8360148 -0.65366099 6.6383848e-20)
(0.78794048 -0.61219312 -2.398868e-20)
(0.74240397 -0.57494037 -7.1770768e-20)
(0.69524589 -0.55170237 -2.8044155e-20)
(0.63321084 -0.54753021 9.526413e-20)
(0.56024503 -0.52393998 8.2993797e-20)
(0.52027582 -0.40111787 1.1139889e-19)
(0.54122756 -0.15823741 -2.4512324e-19)
(0.60420916 0.12995131 -8.5966105e-20)
(0.6821583 0.36957726 1.6082723e-20)
(0.75379884 0.51081838 -1.2598706e-20)
(0.80526386 0.56023323 2.2809534e-20)
(0.83382705 0.56090161 1.2750466e-20)
(0.84395984 0.56141407 -2.9726549e-21)
(0.84343479 0.57606419 -4.6795201e-21)
(0.84459135 0.55525892 -2.1452691e-20)
(0.86021621 0.42048769 2.4225913e-20)
(0.88933722 0.1532157 -1.1061008e-20)
(0.91386672 -0.16696385 4.4617607e-21)
(0.920352 -0.41852664 -4.9166478e-21)
(0.91020644 -0.53100423 7.2449236e-21)
(0.88592065 -0.53342204 -2.5749379e-20)
(0.84413019 -0.50297433 6.681552e-20)
(0.78791139 -0.45939173 -3.4823421e-20)
(0.74191643 -0.34058051 -6.4393423e-20)
(0.7332428 -0.10635607 2.757117e-20)
(0.75747365 0.17817557 4.8934565e-20)
(0.79184204 0.40289866 2.9119778e-20)
(0.81687122 0.51094947 -1.7023046e-20)
(0.82640279 0.5000954 5.6237089e-22)
(0.83821229 0.36412918 2.4743645e-20)
(0.86371504 0.11307969 -1.9894525e-20)
(0.87977483 -0.17110173 2.4761488e-21)
(0.86336382 -0.37785769 -2.6377831e-21)
(0.81683065 -0.44337301 9.6172026e-21)
(0.76937237 -0.34561457 4.6386711e-20)
(0.74954733 -0.10793231 -2.355743e-19)
(0.75509463 0.19776317 2.8045489e-21)
(0.72972135 0.30138038 3.3423777e-20)
(0.46708275 0.30274843 -1.1978988e-20)
(0.56684438 0.23525257 1.4104861e-20)
(0.66600585 0.14253797 6.14295e-21)
(0.75961892 0.031260352 4.0033221e-20)
(0.84586206 -0.097940834 1.9565924e-21)
(0.92630753 -0.24556489 -2.414668e-20)
(0.99466359 -0.39998779 4.3850712e-20)
(1.0353795 -0.5351239 7.4691401e-20)
(1.0365562 -0.62462686 9.8262167e-20)
(1.0013753 -0.65910991 -6.4030965e-21)
(0.94522166 -0.64962356 -3.81529e-20)
(0.88403636 -0.61699145 7.2102807e-21)
(0.82610793 -0.5788125 -4.646661e-20)
(0.77282061 -0.54317177 7.9396038e-21)
(0.72124693 -0.51485376 5.2060823e-20)
(0.65947852 -0.50218857 7.7418692e-20)
(0.57932579 -0.48889559 -4.19316e-20)
(0.51404772 -0.406395 1.1103519e-20)
(0.50978 -0.20653833 1.231265e-19)
(0.56133343 0.061245864 -5.6496294e-20)
(0.6392631 0.30442653 -8.1496514e-20)
(0.71905213 0.46320813 6.2326918e-20)
(0.78336739 0.53256322 -1.9550079e-20)
(0.8250499 0.5478129 1.7797488e-20)
(0.84665132 0.55559803 6.2491997e-20)
(0.8579224 0.57244883 3.0194609e-20)
(0.87288014 0.55307522 8.7895484e-21)
(0.90166654 0.42275072 -2.7501826e-22)
(0.9388975 0.16194233 2.7571964e-20)
(0.96441777 -0.15456177 2.5827024e-20)
(0.96409068 -0.40658664 5.167032e-21)
(0.94124446 -0.52011819 1.0193349e-20)
(0.90426233 -0.52047241 1.4090316e-20)
(0.8533322 -0.48639273 2.4545489e-20)
(0.78876222 -0.44438651 3.1349482e-21)
(0.73232325 -0.33625464 9.565439e-20)
(0.71503627 -0.11590197 1.7114167e-19)
(0.73827936 0.16122124 -2.4374104e-20)
(0.77911726 0.38793212 -1.0276945e-22)
(0.81446878 0.50289263 4.2565387e-20)
(0.83614163 0.49695832 -3.349618e-21)
(0.85915583 0.36231508 2.4551931e-21)
(0.890315 0.11301544 -1.2377331e-20)
(0.90488654 -0.16693464 4.1021008e-21)
(0.88203069 -0.36883394 1.130087e-21)
(0.8265606 -0.43275161 -2.59619e-20)
(0.7689357 -0.33887445 4.4645761e-20)
(0.74226948 -0.1066673 1.1824646e-19)
(0.74711085 0.19792552 -2.1733331e-20)
(0.7312567 0.3034906 -1.2406531e-20)
(0.64171809 0.21039317 1.5654974e-19)
(0.7279176 0.15497003 -1.2528155e-19)
(0.81493432 0.076902003 -1.5625956e-20)
(0.90270448 -0.020818327 4.9016365e-20)
(0.98903808 -0.138797 4.8495826e-20)
(1.0673819 -0.27262719 5.9494829e-20)
(1.124374 -0.40662311 5.0949242e-20)
(1.1447764 -0.51763086 -2.953549e-20)
(1.1230209 -0.58724091 -2.7760031e-20)
(1.0685522 -0.61195619 -8.1297455e-20)
(0.99900051 -0.60258149 5.8966888e-20)
(0.92914792 -0.57516039 4.9336257e-21)
(0.86526895 -0.54248461 -5.3730433e-20)
(0.80693594 -0.51032515 6.2549697e-20)
(0.75177522 -0.48018322 5.8579451e-20)
(0.69205986 -0.45861388 -5.9837157e-20)
(0.61373979 -0.44579531 -4.9156993e-20)
(0.53086726 -0.39647297 1.0694259e-19)
(0.49646654 -0.24663443 6.0232474e-20)
(0.52940752 -0.0098302498 5.6154548e-20)
(0.60267393 0.23081413 9.2218542e-20)
(0.68712462 0.40542158 0)
(0.76191283 0.49570192 2.9215423e-20)
(0.81577324 0.52740192 -2.3924009e-20)
(0.84869123 0.54355966 -6.7975092e-20)
(0.87120215 0.56307427 5.8969225e-21)
(0.8986183 0.54679747 7.7652094e-20)
(0.93916911 0.42457505 -1.0809469e-19)
(0.98426333 0.17455791 3.0141445e-20)
(1.0122287 -0.13535673 -7.9447944e-20)
(1.0074901 -0.38751523 -1.1624053e-20)
(0.97373755 -0.50385482 6.8306356e-22)
(0.9248627 -0.50447471 2.1657071e-20)
(0.86575438 -0.467959 -3.0204977e-20)
(0.79455763 -0.4275773 3.7426247e-20)
(0.72903101 -0.3308482 -2.8681403e-20)
(0.70286945 -0.12641923 -6.1302797e-20)
(0.7236639 0.14122188 -5.3741428e-20)
(0.76940114 0.36911804 9.9081042e-20)
(0.81419431 0.49127731 -5.2671463e-20)
(0.84762349 0.49129897 1.8988221e-20)
(0.88128063 0.35971818 4.0474081e-20)
(0.91755448 0.1139728 -3.2989935e-20)
(0.93062229 -0.16074206 -3.1990949e-21)
(0.90177415 -0.35767839 6.4941851e-21)
(0.8381292 -0.42024359 -2.7754099e-22)
(0.77095881 -0.33081477 5.1664111e-20)
(0.73747743 -0.10519035 1.5275107e-19)
(0.74146223 0.19708985 9.2881849e-20)
(0.73547839 0.30458864 4.5772023e-22)
(0.80399144 0.13200264 1.1491377e-19)
(0.88104626 0.085746709 -7.7008438e-21)
(0.96369321 0.018098775 -8.8438671e-20)
(1.0512813 -0.068206346 2.3316524e-20)
(1.1336096 -0.17153789 -1.042729e-20)
(1.1984633 -0.28469206 8.799422e-21)
(1.2332243 -0.39319469 -1.1402856e-19)
(1.2290408 -0.48024046 -3.1436113e-20)
(1.1873265 -0.53454266 7.6348267e-20)
(1.1204298 -0.55529888 -9.8425224e-21)
(1.0444238 -0.55051775 -7.6048074e-20)
(0.97095991 -0.5309267 5.7867099e-21)
(0.90434081 -0.5050522 2.0901644e-20)
(0.84338152 -0.47735918 5.2545399e-20)
(0.78571344 -0.44834492 -4.5440522e-20)
(0.72767584 -0.42072923 -5.2141989e-20)
(0.65675311 -0.4014094 6.4918447e-20)
(0.56894686 -0.37137006 -5.8304471e-21)
(0.5056874 -0.27113241 -2.0469682e-20)
(0.51101414 -0.076817478 3.435973e-22)
(0.57288134 0.15196073 -4.649847e-20)
(0.65788791 0.33858278 3.5532454e-20)
(0.74042708 0.44972546 -1.6366647e-22)
(0.8051792 0.49945166 3.7463178e-21)
(0.84899692 0.52541614 -1.5968892e-19)
(0.88192546 0.54847651 -1.0499356e-19)
(0.92010512 0.53680928 -3.7690469e-20)
(0.97080775 0.4256469 4.4658424e-20)
(1.0234892 0.1900499 -1.78176e-19)
(1.0555068 -0.11062686 -2.6075791e-19)
(1.0491586 -0.36233998 -7.9606507e-21)
(1.0068306 -0.48279648 -6.3035313e-20)
(0.94719598 -0.48584648 -2.6536673e-20)
(0.88084201 -0.44823136 -2.8211524e-20)
(0.80473122 -0.4093635 4.0668518e-22)
(0.73175108 -0.32418716 -1.9885356e-19)
(0.69677231 -0.13714153 -5.6197172e-20)
(0.71363704 0.11897009 -2.191874e-20)
(0.7625498 0.34691844 -1.821335e-21)
(0.81570456 0.47628354 -9.0856456e-20)
(0.86028252 0.48321745 -1.3377289e-21)
(0.90392398 0.35640091 -2.5075403e-20)
(0.94485241 0.11590692 3.1847378e-21)
(0.95653188 -0.1527023 2.8390361e-20)
(0.92225037 -0.34462952 1.1907654e-20)
(0.85127721 -0.40603544 4.8348608e-20)
(0.77533187 -0.32148765 -4.942812e-20)
(0.73516705 -0.10347952 3.1679839e-20)
(0.73810821 0.19526018 -4.6942942e-20)
(0.74231591 0.30463704 -1.6616879e-21)
(1.0165198 0.06551003 6.3574402e-22)
(1.0741465 0.026180346 -2.2215554e-20)
(1.1393481 -0.030060128 2.2609745e-20)
(1.2073221 -0.10071039 1.5169326e-20)
(1.2654457 -0.18417105 -7.5575049e-20)
(1.3021987 -0.27379306 -1.3905151e-19)
(1.3092429 -0.35859242 -1.2318456e-19)
(1.283469 -0.42738896 -5.5740007e-23)
(1.2295028 -0.47311015 7.5957779e-20)
(1.1584099 -0.49499275 -3.6589629e-20)
(1.0822852 -0.49742494 -4.7501798e-20)
(1.0092764 -0.48664588 1.7230144e-20)
(0.94234393 -0.46804036 2.5678777e-20)
(0.88059504 -0.44518693 1.485413e-20)
(0.82179994 -0.41903739 -3.1288791e-20)
(0.7644413 -0.3896012 4.4083186e-20)
(0.70150753 -0.36245994 5.0764368e-20)
(0.62046355 -0.33693582 -1.211959e-19)
(0.53921272 -0.27503198 5.107835e-22)
(0.51091108 -0.13104679 2.3781886e-20)
(0.55163756 0.072950937 -1.5144697e-19)
(0.63141414 0.26464289 3.838256e-20)
(0.71845351 0.39509441 -3.1337514e-20)
(0.79250871 0.4639643 -2.5687123e-20)
(0.84663753 0.50141549 5.5085577e-20)
(0.88912134 0.52931324 -6.3090759e-20)
(0.9363124 0.52363058 -1.9686751e-20)
(0.99543903 0.42573603 8.4922619e-20)
(1.0553346 0.20733749 7.1383957e-20)
(1.0929702 -0.081904921 2.0957284e-19)
(1.0878902 -0.3326167 3.0042689e-20)
(1.039667 -0.45796376 2.9156449e-20)
(0.97070318 -0.46511949 -5.5519014e-20)
(0.89795958 -0.4277315 -5.858231e-20)
(0.81850995 -0.39021065 -3.9404698e-20)
(0.7398066 -0.31597942 2.533621e-20)
(0.69641988 -0.14750471 -1.7646257e-19)
(0.70802134 0.095163774 -1.1825355e-19)
(0.75832384 0.32187532 -1.1022011e-19)
(0.8186039 0.4581965 3.2622815e-20)
(0.87353199 0.47287584 -5.4963756e-22)
(0.92644034 0.35242467 4.8770067e-20)
(0.97164487 0.11870136 9.2155453e-20)
(0.98216162 -0.14310143 -1.6816283e-20)
(0.94310402 -0.33000813 -2.5934011e-20)
(0.8657109 -0.39037009 -1.9815866e-20)
(0.78188659 -0.31093904 -9.7830418e-20)
(0.73529449 -0.10148194 -2.8866664e-20)
(0.73697805 0.19245334 -6.6025471e-20)
(0.75164741 0.3036048 3.8074561e-20)