/*--------------------------------*- C++ -*----------------------------------*\
| =========                 |                                                 |
| \\      /  F ield         | OpenFOAM: The Open Source CFD Toolbox           |
|  \\    /   O peration     | Version:  v2012                                 |
|   \\  /    A nd           | Website:  www.openfoam.com                      |
|    \\/     M anipulation  |                                                 |
\*---------------------------------------------------------------------------*/
FoamFile
{
    version     2.0;
    format      ascii;
    class       volScalarField;
    location    "30";
    object      V;
}
// * * * * * * * * * * * * * * * * * * * * * * * * * * * * * * * * * * * * * //

dimensions      [0 3 0 0 0 0 0];


internalField   nonuniform List<scalar> 
9200
(
0.0056205169
0.0062275929
0.0068873684
0.0076040828
0.0083823061
0.0092269636
0.010143364
0.011137226
0.012214716
0.013382475
0.014647659
0.016017978
0.017501738
0.019107887
0.020846063
0.022726648
0.024760823
0.026960632
0.029339046
0.031910031
0.0056298282
0.0062379373
0.0068988362
0.0076167717
0.0083963216
0.0092424199
0.010160384
0.011155943
0.012235274
0.013405028
0.014672375
0.016045037
0.017531336
0.019140234
0.020881385
0.022765191
0.024802851
0.027006429
0.029388919
0.031964313
0.0056368608
0.0062457509
0.0069074991
0.0076263579
0.0084069109
0.0092540984
0.010173245
0.011170087
0.012250809
0.013422072
0.014691055
0.01606549
0.017553708
0.019164684
0.020908086
0.022794327
0.024834622
0.027041051
0.029426624
0.032005352
0.0056415726
0.0062509864
0.0069133041
0.0076327819
0.0084140075
0.0092619254
0.010181864
0.011179567
0.012261223
0.013433498
0.014703577
0.0160792
0.017568705
0.019181075
0.020925987
0.02281386
0.024855923
0.027064264
0.029451904
0.032032867
0.0056439357
0.0062536122
0.0069162157
0.007636004
0.0084175672
0.0092658515
0.010186188
0.011184323
0.012266446
0.013439229
0.014709858
0.016086078
0.017576229
0.019189299
0.020934967
0.022823661
0.02486661
0.02707591
0.029464588
0.032046673
0.0056439359
0.0062536125
0.006916216
0.0076360044
0.0084175675
0.0092658518
0.010186189
0.011184324
0.012266447
0.01343923
0.014709859
0.016086078
0.01757623
0.0191893
0.020934968
0.022823661
0.024866611
0.027075911
0.029464589
0.032046674
0.0056415733
0.0062509872
0.0069133049
0.0076327829
0.0084140085
0.0092619265
0.010181866
0.011179569
0.012261224
0.013433499
0.014703578
0.016079202
0.017568707
0.019181078
0.020925989
0.022813863
0.024855926
0.027064267
0.029451908
0.032032871
0.0056368619
0.0062457522
0.0069075005
0.0076263595
0.0084069126
0.0092541003
0.010173247
0.011170089
0.012250812
0.013422075
0.014691058
0.016065493
0.017553711
0.019164688
0.02090809
0.022794331
0.024834627
0.027041057
0.02942663
0.032005358
0.0056298298
0.0062379391
0.0068988382
0.0076167739
0.008396324
0.0092424225
0.010160386
0.011155946
0.012235277
0.013405032
0.014672379
0.016045042
0.017531341
0.019140239
0.020881391
0.022765197
0.024802858
0.027006437
0.029388928
0.031964323
0.0056205189
0.0062275951
0.0068873709
0.0076040855
0.0083823091
0.0092269669
0.010143367
0.01113723
0.012214721
0.01338248
0.014647664
0.016017984
0.017501745
0.019107894
0.020846071
0.022726656
0.024760832
0.026960642
0.029339056
0.031910043
0.0056205189
0.0062275951
0.0068873709
0.0076040855
0.0083823091
0.0092269669
0.010143367
0.01113723
0.012214721
0.01338248
0.014647664
0.016017984
0.017501745
0.019107894
0.020846071
0.022726656
0.024760832
0.026960642
0.029339056
0.031910043
0.0056298298
0.0062379391
0.0068988382
0.0076167739
0.008396324
0.0092424225
0.010160386
0.011155946
0.012235277
0.013405032
0.014672379
0.016045042
0.017531341
0.019140239
0.020881391
0.022765197
0.024802858
0.027006437
0.029388928
0.031964323
0.0056368619
0.0062457522
0.0069075005
0.0076263595
0.0084069126
0.0092541003
0.010173247
0.011170089
0.012250812
0.013422075
0.014691058
0.016065493
0.017553711
0.019164688
0.02090809
0.022794331
0.024834627
0.027041057
0.02942663
0.032005358
0.0056415733
0.0062509872
0.0069133049
0.0076327829
0.0084140085
0.0092619265
0.010181866
0.011179569
0.012261224
0.013433499
0.014703578
0.016079202
0.017568707
0.019181078
0.020925989
0.022813863
0.024855926
0.027064267
0.029451908
0.032032871
0.0056439359
0.0062536125
0.006916216
0.0076360044
0.0084175675
0.0092658518
0.010186189
0.011184324
0.012266447
0.01343923
0.014709859
0.016086078
0.01757623
0.0191893
0.020934968
0.022823661
0.024866611
0.027075911
0.029464589
0.032046674
0.0056439357
0.0062536122
0.0069162157
0.007636004
0.0084175672
0.0092658515
0.010186188
0.011184323
0.012266446
0.013439229
0.014709858
0.016086078
0.017576229
0.019189299
0.020934967
0.022823661
0.02486661
0.02707591
0.029464588
0.032046673
0.0056415726
0.0062509864
0.0069133041
0.0076327819
0.0084140075
0.0092619254
0.010181864
0.011179567
0.012261223
0.013433498
0.014703577
0.0160792
0.017568705
0.019181075
0.020925987
0.02281386
0.024855923
0.027064264
0.029451904
0.032032867
0.0056368608
0.0062457509
0.0069074991
0.0076263579
0.0084069109
0.0092540984
0.010173245
0.011170087
0.012250809
0.013422072
0.014691055
0.01606549
0.017553708
0.019164684
0.020908086
0.022794327
0.024834622
0.027041051
0.029426624
0.032005352
0.0056298282
0.0062379373
0.0068988362
0.0076167717
0.0083963216
0.0092424199
0.010160384
0.011155943
0.012235274
0.013405028
0.014672375
0.016045037
0.017531336
0.019140234
0.020881385
0.022765191
0.024802851
0.027006429
0.029388919
0.031964313
0.0056205169
0.0062275929
0.0068873684
0.0076040828
0.0083823061
0.0092269636
0.010143364
0.011137226
0.012214716
0.013382475
0.014647659
0.016017978
0.017501738
0.019107887
0.020846063
0.022726648
0.024760823
0.026960632
0.029339046
0.031910031
0.045428154
0.047085375
0.048801685
0.050579085
0.052419637
0.05432546
0.056298738
0.058341715
0.060456699
0.062646063
0.064912243
0.067257741
0.069685128
0.072197037
0.074796171
0.077485297
0.080267252
0.083144935
0.086121316
0.089199426
0.092382361
0.095673283
0.099075411
0.10259202
0.10622646
0.10998211
0.11386242
0.11787086
0.12201098
0.12628634
0.13070054
0.1352572
0.13995997
0.14481249
0.14981841
0.15498138
0.16030502
0.16579291
0.17144858
0.17727551
0.18327708
0.18945659
0.19581721
0.20236196
0.2090937
0.21601507
0.22312852
0.2304362
0.23794
0.24564144
0.045207975
0.046858835
0.048568686
0.050339537
0.052173457
0.054072576
0.056039086
0.058075244
0.060183372
0.062365857
0.064625153
0.06696378
0.06938433
0.071889459
0.074481896
0.077164437
0.079939949
0.082811368
0.085781701
0.088854021
0.092031472
0.095317265
0.098714675
0.10222704
0.10585777
0.10961033
0.11348823
0.11749506
0.12163443
0.12591001
0.13032553
0.13488472
0.13959136
0.14444925
0.14946219
0.15463399
0.15996847
0.16546941
0.17114055
0.17698562
0.18300826
0.18921204
0.19560043
0.20217678
0.2089443
0.21590604
0.22306484
0.23042331
0.23798382
0.24574842
0.044710509
0.046346996
0.048042255
0.04979831
0.051617247
0.053501218
0.055452438
0.057473192
0.059565831
0.061732775
0.063976518
0.066299622
0.068704725
0.071194537
0.073771844
0.076439509
0.079200467
0.082057736
0.085014406
0.088073648
0.09123871
0.094512917
0.097899672
0.10140245
0.10502481
0.10877038
0.11264286
0.11664602
0.1207837
0.12505981
0.12947831
0.13404322
0.13875863
0.14362865
0.14865745
0.15384923
0.15920821
0.16473864
0.17044476
0.17633083
0.18240108
0.1886597
0.19511084
0.20175861
0.20860702
0.21565996
0.22292124
0.23039448
0.23808315
0.24599049
0.0439384
0.04555258
0.047225191
0.04895828
0.050753963
0.052614422
0.054541912
0.056538755
0.058607352
0.060750176
0.062969778
0.065268788
0.067649915
0.070115953
0.072669777
0.07531435
0.078052719
0.080888022
0.083823486
0.086862428
0.090008259
0.093264482
0.096634696
0.10012259
0.10373196
0.10746668
0.11133074
0.11532822
0.11946327
0.12374018
0.1281633
0.1327371
0.1374661
0.14235494
0.14740835
0.15263112
0.15802812
0.16360432
0.16936473
0.17531443
0.18145855
0.18780227
0.19435081
0.20110942
0.20808334
0.21527784
0.22269816
0.23034952
0.23823707
0.24636593
0.042895757
0.044479813
0.046121838
0.047823913
0.049588192
0.0514169
0.053312341
0.055276895
0.057313025
0.059423274
0.061610274
0.063876744
0.066225492
0.068659422
0.071181531
0.073794917
0.076502777
0.079308414
0.082215235
0.085226759
0.088346614
0.091578545
0.094926414
0.098394202
0.10198601
0.10570608
0.10955876
0.11354854
0.11768004
0.12195802
0.12638737
0.13097313
0.13572048
0.14063473
0.14572134
0.15098594
0.15643427
0.16207225
0.16790593
0.17394152
0.18018537
0.18664398
0.193324
0.20023223
0.20737561
0.21476121
0.22239625
0.23028808
0.23844416
0.24687208
0.041588126
0.043134399
0.044738064
0.046401241
0.048126131
0.049915016
0.05177026
0.053694315
0.055689721
0.057759113
0.059905221
0.062130875
0.064439009
0.066832664
0.069314991
0.071889256
0.074558846
0.077327267
0.080198156
0.083175282
0.086262548
0.089464001
0.092783833
0.096226388
0.099796167
0.10349784
0.10733622
0.11131633
0.11544335
0.11972265
0.12415979
0.12876053
0.13353085
0.13847693
0.14360516
0.14892217
0.15443483
0.16015024
0.16607577
0.17221902
0.17858788
0.18519052
0.19203537
0.19913118
0.206487
0.21411219
0.22201643
0.23020973
0.23870247
0.24750535
0.040022469
0.041523501
0.043081232
0.044697831
0.046375558
0.048116756
0.049923867
0.051799425
0.053746066
0.055766531
0.057863671
0.060040448
0.062299945
0.064645368
0.067080052
0.069607466
0.07223122
0.074955068
0.077782921
0.080718845
0.083767073
0.086932014
0.090218256
0.093630575
0.097173949
0.10085356
0.1046748
0.1086433
0.11276492
0.11704575
0.12149218
0.12611082
0.1309086
0.13589273
0.14107073
0.14645044
0.15204006
0.15784811
0.16388353
0.1701556
0.17667406
0.18344904
0.19049114
0.19781144
0.2054215
0.21333341
0.22155982
0.23011394
0.23900959
0.24826124
0.038207125
0.039655698
0.041160164
0.042722753
0.044345787
0.046031689
0.047782983
0.049602302
0.051492393
0.053456119
0.05549647
0.057616564
0.059819655
0.062109141
0.064488569
0.066961644
0.069532234
0.072204383
0.074982314
0.077870442
0.080873382
0.08399596
0.087243225
0.090620455
0.094133177
0.097787174
0.1015885
0.10554349
0.1096588
0.11394137
0.1183985
0.12303783
0.12786738
0.13289556
0.13813118
0.14358351
0.14926226
0.15517763
0.16134035
0.16776168
0.17445346
0.18142814
0.1886988
0.19627921
0.20418388
0.21242806
0.22102782
0.23000008
0.23936267
0.2491344
0.036151772
0.037540944
0.038985098
0.040486528
0.042047632
0.043670917
0.045359005
0.04711464
0.048940692
0.050840166
0.052816206
0.054872107
0.057011318
0.059237453
0.0615543
0.063965829
0.066476204
0.069089791
0.071811172
0.074645154
0.077596785
0.080671364
0.083874458
0.087211917
0.090689887
0.094314833
0.098093551
0.10203319
0.10614128
0.11042575
0.11489492
0.11955759
0.12442303
0.12950098
0.13480174
0.14033617
0.14611571
0.15215246
0.15845918
0.16504934
0.17193719
0.17913777
0.18666701
0.19454173
0.20277973
0.21139985
0.22042205
0.22986744
0.23975839
0.25011863
0.033867376
0.035190521
0.036567634
0.038001081
0.039493343
0.041047022
0.042664849
0.044349689
0.046104552
0.047932597
0.049837143
0.051821678
0.053889869
0.05604557
0.058292837
0.060635935
0.063079354
0.06562782
0.068286313
0.071060077
0.073954637
0.076975821
0.080129772
0.083422971
0.086862257
0.090454851
0.094208372
0.098130874
0.10223087
0.10651734
0.1109998
0.11568831
0.12059351
0.12572667
0.13109969
0.13672522
0.14261663
0.14878811
0.15525468
0.16203228
0.16913783
0.17658928
0.18440565
0.19260719
0.20121537
0.21025302
0.21974438
0.22971526
0.24019305
0.25120694
0.038028535
0.039444843
0.0409139
0.042437668
0.044018187
0.045657569
0.047358008
0.049121776
0.050951233
0.052848825
0.05481709
0.056858659
0.058976263
0.061172734
0.063451008
0.065814133
0.068265269
0.070807692
0.073444805
0.076180131
0.079017331
0.081960197
0.085012665
0.088178817
0.091462887
0.094869267
0.098402511
0.10206734
0.10586867
0.10981157
0.11390131
0.11814337
0.12254342
0.12710734
0.13184124
0.13675144
0.14184452
0.14712728
0.15260678
0.15829036
0.16418562
0.17030043
0.17664298
0.18322175
0.19004553
0.19712345
0.20446498
0.21207993
0.21997849
0.22817121
0.040667822
0.042182425
0.043753438
0.04538296
0.047073172
0.048826332
0.050644786
0.052530964
0.054487391
0.056516681
0.058621548
0.060804808
0.06306938
0.065418292
0.067854685
0.070381817
0.073003068
0.075721943
0.078542078
0.081467244
0.084501353
0.087648463
0.09091278
0.094298672
0.097810666
0.10145346
0.10523192
0.1091511
0.11321625
0.1174328
0.12180638
0.12634285
0.13104828
0.13592895
0.14099139
0.14624238
0.15168892
0.15733832
0.16319812
0.16927616
0.17558055
0.18211976
0.1889025
0.19593785
0.20323522
0.21080437
0.21865542
0.22679887
0.23524561
0.24400693
0.043490282
0.045110004
0.046790049
0.048532665
0.050340181
0.052215016
0.054159675
0.05617676
0.058268968
0.060439097
0.062690048
0.065024832
0.067446571
0.069958504
0.07256399
0.075266512
0.078069685
0.080977258
0.083993118
0.087121299
0.090365983
0.093731511
0.097222381
0.10084326
0.104599
0.10849461
0.11253531
0.11672649
0.12107377
0.12558296
0.13026009
0.1351114
0.14014339
0.1453628
0.15077659
0.156392
0.16221656
0.16825804
0.17452452
0.18102439
0.18776634
0.19475938
0.20201286
0.20953648
0.21734031
0.22543478
0.23383072
0.24253934
0.25157231
0.26094169
0.046508629
0.048240763
0.050037408
0.051900967
0.05383393
0.055838883
0.057918507
0.060075583
0.062312996
0.064633738
0.067040912
0.069537736
0.072127551
0.074813819
0.077600132
0.080490217
0.083487939
0.086597305
0.089822474
0.093167759
0.096637634
0.10023674
0.10396989
0.10784207
0.11185846
0.11602444
0.12034557
0.12482764
0.12947663
0.13429877
0.1393005
0.14448851
0.14986974
0.15545138
0.1612409
0.16724604
0.17347484
0.17993562
0.18663701
0.19358799
0.20079784
0.20827622
0.21603311
0.2240789
0.23242434
0.24108058
0.25005922
0.25937225
0.26903213
0.27905177
0.049736457
0.051588807
0.053510144
0.055503038
0.057570155
0.059714257
0.061938213
0.064244996
0.066637692
0.0691195
0.071693738
0.074363849
0.077133404
0.080006107
0.082985798
0.086076463
0.089282234
0.092607399
0.096056404
0.099633861
0.10334456
0.10719345
0.11118568
0.11532661
0.11962175
0.12407686
0.12869789
0.13349102
0.13846267
0.14361948
0.14896834
0.15451641
0.16027111
0.16624014
0.17243147
0.17885339
0.18551448
0.19242365
0.19959014
0.20702354
0.21473377
0.22273117
0.23102641
0.23963059
0.24855523
0.25781225
0.26741403
0.27737341
0.28770371
0.29841874
0.053188306
0.055169214
0.057223897
0.059355104
0.061565684
0.063858593
0.066236898
0.068703778
0.071262534
0.073916586
0.076669483
0.079524907
0.082486677
0.085558753
0.088745244
0.092050409
0.09547867
0.099034611
0.10272299
0.10654873
0.11051696
0.11463297
0.11890228
0.12333059
0.12792383
0.13268814
0.13762988
0.14275567
0.14807237
0.15358707
0.15930716
0.16524028
0.17139437
0.17777767
0.18439869
0.19126631
0.1983897
0.20577839
0.21344225
0.22139155
0.22963689
0.23818933
0.24706029
0.25626163
0.26580566
0.27570513
0.2859733
0.29662389
0.30767115
0.31912983
0.056879723
0.058998111
0.061195395
0.063474514
0.065838514
0.068290557
0.070833923
0.073472012
0.076208352
0.079046603
0.081990559
0.085044158
0.088211483
0.091496769
0.094904411
0.098438964
0.10210516
0.10590789
0.10985225
0.11394351
0.11818714
0.12258882
0.12715443
0.13189008
0.1368021
0.14189707
0.14718178
0.15266331
0.158349
0.16424644
0.17036352
0.17670842
0.18328962
0.19011593
0.19719648
0.20454073
0.2121585
0.22005998
0.22825574
0.23675674
0.24557433
0.25472034
0.26420696
0.2740469
0.28425331
0.29483984
0.30582065
0.31721042
0.32902438
0.34127834
0.060827334
0.063092744
0.065442526
0.067879822
0.07040789
0.073030112
0.075749995
0.078571174
0.081497424
0.084532657
0.087680932
0.090946459
0.094333606
0.0978469
0.10149104
0.1052709
0.10919154
0.11325819
0.1174763
0.12185151
0.12638966
0.13109683
0.1359793
0.14104362
0.14629655
0.15174512
0.15739661
0.16325857
0.16933886
0.1756456
0.18218722
0.18897248
0.19601043
0.20331051
0.21088246
0.21873642
0.22688289
0.23533276
0.24409732
0.25318832
0.26261788
0.27239864
0.28254366
0.29306652
0.30398128
0.31530255
0.32704545
0.33922571
0.35185959
0.364964
0.06504892
0.067471557
0.06998442
0.072590871
0.075294394
0.078098606
0.081007256
0.084024233
0.087153573
0.090399459
0.093766233
0.097258397
0.10088062
0.10463775
0.1085348
0.112577
0.11676974
0.12111863
0.12562948
0.13030834
0.13516145
0.14019531
0.14541665
0.15083244
0.15644994
0.16227665
0.16832037
0.17458917
0.18109145
0.18783589
0.19483152
0.20208769
0.2096141
0.21742082
0.22551829
0.23391734
0.24262919
0.25166551
0.26103835
0.27076029
0.28084429
0.29130386
0.30215298
0.31340615
0.32507843
0.33718542
0.34974332
0.36276892
0.37627963
0.39029352
0.069563497
0.072154271
0.074841534
0.077628879
0.080520035
0.083518867
0.086629385
0.089855749
0.093202274
0.096673434
0.10027387
0.1040084
0.10788202
0.1118999
0.11606742
0.12039015
0.12487388
0.1295246
0.13434852
0.1393521
0.14454203
0.14992526
0.15550897
0.16130063
0.167308
0.1735391
0.18000227
0.18670615
0.1936597
0.20087223
0.20835337
0.21611314
0.22416191
0.23251044
0.24116989
0.25015185
0.25946833
0.26913179
0.27915514
0.28955181
0.30033567
0.31152116
0.32312324
0.33515741
0.34763978
0.36058703
0.37401648
0.38794609
0.40239448
0.41738098
0.074391397
0.077161978
0.080035745
0.08301654
0.08610835
0.089315309
0.092641706
0.096091988
0.099670771
0.10338284
0.10723316
0.11122687
0.11536933
0.11966606
0.12412282
0.12874557
0.13354048
0.13851396
0.14367268
0.14902353
0.15457365
0.16033049
0.16630172
0.17249535
0.17891964
0.1855832
0.19249493
0.19966407
0.20710023
0.21481332
0.22281368
0.231112
0.23971937
0.24864731
0.25790775
0.26751309
0.27747616
0.28781029
0.29852929
0.30964751
0.3211798
0.3331416
0.34554889
0.35841827
0.37176695
0.38561277
0.39997427
0.41487063
0.43032178
0.44634838
0.079554368
0.082517235
0.085590449
0.088778119
0.09208451
0.09551404
0.099071299
0.10276104
0.1065882
0.1105579
0.11467544
0.11894633
0.12337628
0.12797122
0.13273729
0.13768087
0.14280856
0.14812722
0.15364397
0.15936617
0.1653015
0.17145787
0.17784353
0.184467
0.19133717
0.19846319
0.20585462
0.21352132
0.22147356
0.22972197
0.23827757
0.24715181
0.25635656
0.26590412
0.27580727
0.28607924
0.29673378
0.30778513
0.31924805
0.33113791
0.34347057
0.35626256
0.36953095
0.3832935
0.39756861
0.41237538
0.4277336
0.44366381
0.46018731
0.47732621
0.085075662
0.088244161
0.091530664
0.094939568
0.098475431
0.10214298
0.10594712
0.10989294
0.11398572
0.11823092
0.12263423
0.12720154
0.13193894
0.13685278
0.14194963
0.1472363
0.15271987
0.15840766
0.16430728
0.17042663
0.17677388
0.18335752
0.19018636
0.19726953
0.2046165
0.21223709
0.2201415
0.22834029
0.23684444
0.24566531
0.2548147
0.26430484
0.27414842
0.28435861
0.29494906
0.30593394
0.31732793
0.32914627
0.34140476
0.35411981
0.36730839
0.38098817
0.39517742
0.40989513
0.42516098
0.44099538
0.4574195
0.47445531
0.49212559
0.51045397
0.090980151
0.094368552
0.097883148
0.10152864
0.1053099
0.10923199
0.11330015
0.11751982
0.12189665
0.12643648
0.13114539
0.13602968
0.14109587
0.14635075
0.15180133
0.15745491
0.16331905
0.16940159
0.17571067
0.18225471
0.18904248
0.19608305
0.20338583
0.21096058
0.21881745
0.22696694
0.23541993
0.24418775
0.25328211
0.26271517
0.27249955
0.28264833
0.29317508
0.30409389
0.31541935
0.32716661
0.33935137
0.35198994
0.3650992
0.37869671
0.39280061
0.40742981
0.42260384
0.438343
0.45466834
0.47160169
0.48916569
0.50738384
0.52628048
0.5458809
0.097294427
0.10091799
0.10467651
0.10857501
0.1126187
0.11681299
0.12116349
0.12567602
0.13035661
0.13521152
0.14024725
0.14547052
0.15088832
0.1565079
0.16233677
0.16838272
0.17465385
0.18115854
0.18790548
0.1949037
0.20216256
0.20969176
0.21750137
0.22560184
0.23400399
0.24271907
0.25175873
0.26113506
0.27086059
0.28094833
0.29141178
0.30226491
0.31352225
0.32519886
0.33731033
0.34987288
0.3629033
0.37641902
0.3904381
0.40497931
0.42006207
0.43570658
0.45193372
0.46876522
0.48622359
0.50433216
0.52311515
0.54259769
0.56280581
0.58376656
0.10404693
0.10792198
0.11194135
0.11611042
0.12043475
0.12492014
0.12957258
0.13439829
0.13940372
0.14459558
0.1499808
0.15556657
0.16136039
0.16736998
0.17360339
0.18006895
0.18677532
0.19373144
0.20094664
0.20843056
0.2161932
0.22424495
0.23259657
0.24125923
0.25024452
0.25956445
0.26923149
0.27925856
0.28965907
0.30044693
0.31163657
0.32324294
0.33528157
0.34776856
0.36072061
0.37415504
0.3880898
0.40254355
0.4175356
0.43308601
0.44921555
0.46594583
0.48329918
0.50129884
0.51996886
0.53933421
0.5594208
0.58025548
0.60186611
0.62428159
0.11126808
0.11541207
0.11971039
0.1241688
0.12879326
0.13358995
0.13856528
0.1437259
0.14907873
0.15463092
0.16038988
0.16636333
0.17255925
0.17898592
0.18565195
0.19256624
0.19973804
0.20717695
0.2148929
0.22289622
0.23119761
0.23980817
0.24873942
0.2580033
0.26761219
0.27757895
0.28791691
0.29863988
0.30976222
0.32129878
0.33326501
0.3456769
0.35855104
0.37190467
0.38575563
0.40012244
0.41502432
0.4304812
0.44651373
0.46314338
0.48039236
0.49828377
0.51684149
0.53609037
0.55605615
0.57676551
0.59824616
0.62052683
0.64363729
0.66760847
0.11899039
0.12342199
0.12801863
0.13278647
0.13773187
0.14286146
0.14818209
0.15370088
0.15942521
0.16536273
0.17152139
0.17790941
0.18453534
0.19140805
0.19853671
0.20593088
0.21360042
0.2215556
0.22980707
0.23836584
0.24724337
0.25645153
0.26600263
0.27590944
0.28618522
0.2968437
0.30789914
0.31936632
0.33126058
0.34359782
0.35639453
0.36966784
0.38343549
0.39771589
0.41252814
0.42789205
0.44382816
0.46035779
0.47750303
0.49528683
0.51373293
0.53286605
0.55271173
0.57329654
0.594648
0.61679465
0.63976612
0.66359312
0.68830752
0.71394236
0.12724866
0.13198782
0.13690348
0.14200222
0.14729085
0.15277644
0.15846634
0.16436815
0.17048976
0.17683937
0.18342545
0.19025682
0.19734261
0.2046923
0.21231571
0.22022305
0.22842488
0.23693218
0.24575632
0.25490909
0.26440275
0.27424998
0.28446395
0.29505833
0.30604727
0.31744548
0.3292682
0.34153123
0.35425099
0.36744446
0.38112931
0.39532382
0.41004698
0.42531848
0.44115875
0.45758895
0.47463107
0.49230791
0.51064307
0.52966111
0.54938743
0.56984844
0.59107147
0.61308492
0.63591823
0.65960191
0.68416767
0.70964833
0.73607797
0.76349195
0.13608007
0.14114814
0.14640496
0.15185757
0.15751324
0.16337956
0.16946435
0.17577576
0.18232223
0.18911251
0.19615568
0.20346117
0.21103873
0.21889851
0.22705102
0.23550715
0.24427821
0.25337593
0.26281249
0.27260049
0.28275304
0.29328369
0.30420654
0.3155362
0.32728781
0.33947709
0.35212033
0.36523445
0.37883699
0.39294613
0.40758074
0.42276039
0.43850538
0.45483677
0.47177639
0.4893469
0.50757179
0.52647545
0.54608312
0.56642107
0.58751645
0.60939751
0.63209348
0.65563472
0.68005272
0.70538012
0.73165081
0.7588999
0.78716384
0.81648042
0.1455244
0.15094421
0.15656587
0.1623969
0.1684451
0.17471855
0.18122565
0.18797509
0.1949759
0.20223745
0.20976943
0.21758194
0.22568541
0.23409068
0.24280899
0.251852
0.2612318
0.27096093
0.28105241
0.29151973
0.30237688
0.3136384
0.32531932
0.33743529
0.35000249
0.36303774
0.37655846
0.39058274
0.40512933
0.42021769
0.43586798
0.45210114
0.46893887
0.48640371
0.50451899
0.52330894
0.54279869
0.56301431
0.58398281
0.60573227
0.62829172
0.65169139
0.67596252
0.70113759
0.72725028
0.75433547
0.78242941
0.81156967
0.8417952
0.87314643
0.15562421
0.16142016
0.16743198
0.1736677
0.18013566
0.18684451
0.19380321
0.20102108
0.20850777
0.21627329
0.22432802
0.23268274
0.24134861
0.25033723
0.25966061
0.26933123
0.27936201
0.28976637
0.30055823
0.31175201
0.32336268
0.33540578
0.34789739
0.36085424
0.37429364
0.38823357
0.40269267
0.41769027
0.43324644
0.44938197
0.46611844
0.48347822
0.50148454
0.52016148
0.53953402
0.55962804
0.58047043
0.60208907
0.62451285
0.64777178
0.67189692
0.69692059
0.72287621
0.7497985
0.77772348
0.80668846
0.8367322
0.86789487
0.90021814
0.93374523
0.16642496
0.17262317
0.17905223
0.18572073
0.19263758
0.19981204
0.2072537
0.21497251
0.22297879
0.23128326
0.23989701
0.24883157
0.25809887
0.26771133
0.27768178
0.28802357
0.29875051
0.30987697
0.32141781
0.33338847
0.34580496
0.35868387
0.37204244
0.38589853
0.40027067
0.41517807
0.43064067
0.44667914
0.46331495
0.48057033
0.49846836
0.51703296
0.53628897
0.55626214
0.57697918
0.59846779
0.6207567
0.64387573
0.66785578
0.69272895
0.71852844
0.74528883
0.77304583
0.80183661
0.83169966
0.86267489
0.89480375
0.9281292
0.96269579
0.99854975
0.17797531
0.1846037
0.19147895
0.19861026
0.20600716
0.21367955
0.22163768
0.2298922
0.23845414
0.24733496
0.25654653
0.26610117
0.27601165
0.28629124
0.29695367
0.3080132
0.31948463
0.33138329
0.3437251
0.35652656
0.36980478
0.38357753
0.39786322
0.41268096
0.42805057
0.44399258
0.46052833
0.47767992
0.4954703
0.51392325
0.53306345
0.55291649
0.57350891
0.59486828
0.61702314
0.64000312
0.66383894
0.6885625
0.71420683
0.74080626
0.76839631
0.79701394
0.82669737
0.8574863
0.88942192
0.92254692
0.95690562
0.99254394
1.0295096
1.0678519
0.1903273
0.19741571
0.20476813
0.21239437
0.22030463
0.2285095
0.23701995
0.24584736
0.25500352
0.2645007
0.27435157
0.28456933
0.29516763
0.30616065
0.31756308
0.32939018
0.34165776
0.35438222
0.36758058
0.38127049
0.39547027
0.41019888
0.42547604
0.44132217
0.45775847
0.4748069
0.49249028
0.51083224
0.52985732
0.54959095
0.57005954
0.59129043
0.61331203
0.6361538
0.65984627
0.68442112
0.70991122
0.73635066
0.76377477
0.79222028
0.82172516
0.85232894
0.88407247
0.91699824
0.95115029
0.98657425
1.0233175
1.0614293
1.1009604
1.1419638
0.20353654
0.21111691
0.2189796
0.22713513
0.23559439
0.2443687
0.2534698
0.26290985
0.27270148
0.28285778
0.29339234
0.30431924
0.31565309
0.32740905
0.33960285
0.35225078
0.36536976
0.37897733
0.3930917
0.40773173
0.422917
0.43866783
0.45500527
0.47195116
0.48952818
0.50775983
0.52667048
0.54628542
0.56663089
0.5877341
0.60962326
0.63232764
0.6558776
0.68030465
0.70564144
0.73192185
0.75918104
0.78745545
0.81678287
0.84720258
0.87875518
0.91148294
0.94542956
0.98064047
1.0171628
1.0550453
1.0943386
1.1350954
1.1773701
1.2212193
0.21766255
0.22576902
0.2341774
0.24289894
0.2519453
0.26132857
0.27106131
0.28115653
0.29162772
0.3024889
0.31375459
0.32543984
0.33756029
0.35013215
0.36317223
0.37669796
0.39072744
0.40527942
0.42037336
0.43602945
0.45226862
0.4691126
0.4865839
0.50470589
0.5235028
0.54299977
0.56322288
0.58419915
0.60595666
0.62852448
0.65193281
0.67621294
0.70139733
0.72751969
0.75461492
0.78271927
0.81187032
0.84210705
0.87346988
0.9060008
0.93974324
0.9747424
1.011045
1.0486997
1.0877567
1.1282683
1.1702888
1.2138742
1.2590829
1.3059753
0.23276893
0.24143802
0.25042996
0.2597568
0.269431
0.2794655
0.28987372
0.30066957
0.3118675
0.32348247
0.33553003
0.34802627
0.36098792
0.3744323
0.38837739
0.40284185
0.41784501
0.43340694
0.44954844
0.46629111
0.48365733
0.50167032
0.52035418
0.53973388
0.55983536
0.58068547
0.60231211
0.6247442
0.64801174
0.67214583
0.69717876
0.723144
0.75007626
0.77801158
0.8069873
0.83704217
0.86821638
0.90055163
0.93409112
0.96887978
1.004964
1.0423922
1.0812144
1.1214823
1.16325
1.2065733
1.2515101
1.2981204
1.3464667
1.3966136
0.24892375
0.25819449
0.2678105
0.27778465
0.28813026
0.29886119
0.30999176
0.32153688
0.33351197
0.34593306
0.35881675
0.37218027
0.38604149
0.40041895
0.41533187
0.4308002
0.44684462
0.46348658
0.48074835
0.49865301
0.51722449
0.53648764
0.55646821
0.57719292
0.59868949
0.62098666
0.64411425
0.66810318
0.69298556
0.71879463
0.74556491
0.77333221
0.80213364
0.83200775
0.86299447
0.89513523
0.92847301
0.96305242
0.99891965
1.0361227
1.0747113
1.1147372
1.1562536
1.1993163
1.2439828
1.2903129
1.3383684
1.3882136
1.4399153
1.4935425
0.26619975
0.2761139
0.2863973
0.29706368
0.30812731
0.31960298
0.33150606
0.34385243
0.35665863
0.36994178
0.38371963
0.39801061
0.41283384
0.42820914
0.44415706
0.46069893
0.47785688
0.49565385
0.51411363
0.53326092
0.55312131
0.57372138
0.59508865
0.61725172
0.64024021
0.66408486
0.68881758
0.71447141
0.74108069
0.76868098
0.7973092
0.82700362
0.85780395
0.88975141
0.92288869
0.95726011
0.99291163
1.0298909
1.0682475
1.1080325
1.1492993
1.192103
1.2365009
1.2825522
1.3303187
1.3798642
1.4312549
1.4845595
1.5398494
1.5971985
0.042921767
0.042725086
0.042281066
0.041591644
0.040659832
0.039489705
0.038086389
0.036456042
0.034605841
0.032543955
0.045849159
0.045641581
0.045172961
0.044445344
0.043461903
0.042226935
0.040745843
0.039025122
0.037072338
0.034896103
0.048972323
0.048753487
0.048259455
0.047492377
0.046455597
0.045153638
0.043592191
0.041778095
0.039719317
0.037424927
0.052303785
0.052073362
0.051553174
0.050745482
0.049653803
0.048282893
0.046638737
0.044728526
0.042560639
0.040144616
0.055856787
0.05561449
0.055067498
0.054218187
0.053070248
0.051628676
0.049899755
0.047891037
0.045611321
0.043070624
0.059645313
0.05939091
0.05881659
0.057924845
0.056719543
0.055205922
0.053390567
0.051281398
0.048887639
0.046219791
0.063684123
0.063417448
0.062815432
0.061880678
0.060617236
0.059030586
0.05712762
0.054916624
0.052407251
0.049610491
0.067988768
0.067709745
0.067079856
0.06610182
0.064779868
0.063119719
0.061128573
0.058815081
0.056189326
0.053262787
0.072575621
0.072284277
0.071626578
0.070605359
0.069225025
0.067491536
0.065412393
0.062996611
0.060254695
0.057198606
0.077461891
0.077158382
0.076473228
0.075409375
0.073971399
0.072165495
0.069999457
0.067482655
0.064626006
0.061441942
0.082665641
0.08235028
0.081638378
0.080532987
0.07903885
0.077162384
0.074911665
0.072296402
0.069327909
0.06601907
0.088205796
0.087879084
0.087141566
0.085996393
0.084448463
0.082504405
0.080172556
0.077462946
0.074387258
0.070958802
0.09410215
0.093764812
0.093003316
0.091820906
0.090222618
0.088215272
0.085807445
0.083009457
0.079833329
0.076292756
0.10037536
0.10002839
0.099245158
0.098028992
0.096385048
0.09432031
0.091843565
0.08896538
0.085698073
0.082055674
0.10704693
0.10669163
0.10588963
0.10464431
0.10296091
0.10084656
0.098310219
0.095362644
0.092016393
0.088285768
0.11413919
0.11377726
0.11296029
0.11169171
0.10997685
0.10782291
0.10523895
0.1022359
0.098826454
0.095025115
0.12167525
0.12130881
0.12048169
0.11919732
0.11746107
0.11528017
0.11266375
0.10962277
0.10617003
0.1023201
0.12967898
0.12931068
0.12847937
0.1271885
0.12544339
0.12325127